  14  14   0   0
  0.1214665E+04  0.2658257E-08  0.2624340E-08  0.2437630E-08  0.5000000E-15
  1.000000000000000E-004
  CAR 
 BLACK                                   
     -0.14331425     -9.90326502  301     -4.24198524      1.00000000
     -9.903  0.0000E+00  0.0000E+00
     -9.871  0.0000E+00  0.0000E+00
     -9.838  0.0000E+00  0.0000E+00
     -9.806  0.0000E+00  0.0000E+00
     -9.773  0.0000E+00  0.0000E+00
     -9.741  0.0000E+00  0.0000E+00
     -9.708  0.0000E+00  0.0000E+00
     -9.676  0.4163E-15  0.1354E-16
     -9.643  0.3671E-12  0.1196E-13
     -9.610  0.1414E-09  0.4614E-11
     -9.578  0.2383E-07  0.7798E-09
     -9.545  0.1763E-05  0.5815E-07
     -9.513  0.5769E-04  0.1935E-05
     -9.480  0.8402E-03  0.2927E-04
     -9.448  0.5488E-02  0.2078E-03
     -9.415  0.1619E-01  0.7346E-03
     -9.383  0.2187E-01  0.1446E-02
     -9.350  0.1545E-01  0.1949E-02
     -9.318  0.1463E-01  0.2425E-02
     -9.285  0.2701E-01  0.3304E-02
     -9.253  0.3598E-01  0.4474E-02
     -9.220  0.2971E-01  0.5441E-02
     -9.188  0.1718E-01  0.6000E-02
     -9.155  0.2106E-01  0.6685E-02
     -9.122  0.4636E-01  0.8193E-02
     -9.090  0.7087E-01  0.1050E-01
     -9.057  0.8457E-01  0.1325E-01
     -9.025  0.7914E-01  0.1582E-01
     -8.992  0.4772E-01  0.1738E-01
     -8.960  0.1793E-01  0.1796E-01
     -8.927  0.1240E-01  0.1836E-01
     -8.895  0.2577E-01  0.1920E-01
     -8.862  0.3851E-01  0.2046E-01
     -8.830  0.4142E-01  0.2180E-01
     -8.797  0.4579E-01  0.2329E-01
     -8.765  0.4971E-01  0.2491E-01
     -8.732  0.4389E-01  0.2634E-01
     -8.700  0.4552E-01  0.2782E-01
     -8.667  0.5346E-01  0.2956E-01
     -8.634  0.4651E-01  0.3107E-01
     -8.602  0.2876E-01  0.3201E-01
     -8.569  0.2757E-01  0.3290E-01
     -8.537  0.4485E-01  0.3436E-01
     -8.504  0.5469E-01  0.3614E-01
     -8.472  0.4098E-01  0.3747E-01
     -8.439  0.2493E-01  0.3829E-01
     -8.407  0.3319E-01  0.3937E-01
     -8.374  0.5262E-01  0.4108E-01
     -8.342  0.5598E-01  0.4290E-01
     -8.309  0.4723E-01  0.4444E-01
     -8.277  0.5253E-01  0.4614E-01
     -8.244  0.6924E-01  0.4840E-01
     -8.212  0.7303E-01  0.5077E-01
     -8.179  0.5637E-01  0.5261E-01
     -8.146  0.3685E-01  0.5381E-01
     -8.114  0.3522E-01  0.5495E-01
     -8.081  0.4488E-01  0.5641E-01
     -8.049  0.3431E-01  0.5753E-01
     -8.016  0.1235E-01  0.5793E-01
     -7.984  0.2133E-02  0.5800E-01
     -7.951  0.1771E-02  0.5806E-01
     -7.919  0.1060E-01  0.5840E-01
     -7.886  0.3301E-01  0.5948E-01
     -7.854  0.5269E-01  0.6119E-01
     -7.821  0.5069E-01  0.6284E-01
     -7.789  0.4063E-01  0.6416E-01
     -7.756  0.3970E-01  0.6545E-01
     -7.724  0.4588E-01  0.6694E-01
     -7.691  0.5540E-01  0.6875E-01
     -7.658  0.6458E-01  0.7085E-01
     -7.626  0.5800E-01  0.7273E-01
     -7.593  0.4049E-01  0.7405E-01
     -7.561  0.3278E-01  0.7512E-01
     -7.528  0.3758E-01  0.7634E-01
     -7.496  0.6102E-01  0.7833E-01
     -7.463  0.1056E+00  0.8176E-01
     -7.431  0.1446E+00  0.8647E-01
     -7.398  0.1398E+00  0.9102E-01
     -7.366  0.1039E+00  0.9440E-01
     -7.333  0.9055E-01  0.9734E-01
     -7.301  0.9124E-01  0.1003E+00
     -7.268  0.7994E-01  0.1029E+00
     -7.236  0.6934E-01  0.1052E+00
     -7.203  0.5953E-01  0.1071E+00
     -7.170  0.5813E-01  0.1090E+00
     -7.138  0.7784E-01  0.1115E+00
     -7.105  0.9819E-01  0.1147E+00
     -7.073  0.9668E-01  0.1179E+00
     -7.040  0.7957E-01  0.1205E+00
     -7.008  0.6704E-01  0.1226E+00
     -6.975  0.7178E-01  0.1250E+00
     -6.943  0.8301E-01  0.1277E+00
     -6.910  0.7587E-01  0.1301E+00
     -6.878  0.4472E-01  0.1316E+00
     -6.845  0.2517E-01  0.1324E+00
     -6.813  0.3625E-01  0.1336E+00
     -6.780  0.4762E-01  0.1351E+00
     -6.748  0.4833E-01  0.1367E+00
     -6.715  0.6073E-01  0.1387E+00
     -6.682  0.6056E-01  0.1407E+00
     -6.650  0.3194E-01  0.1417E+00
     -6.617  0.8212E-02  0.1420E+00
     -6.585  0.1609E-02  0.1420E+00
     -6.552  0.4536E-02  0.1422E+00
     -6.520  0.1468E-01  0.1426E+00
     -6.487  0.2188E-01  0.1434E+00
     -6.455  0.1578E-01  0.1439E+00
     -6.422  0.1093E-01  0.1442E+00
     -6.390  0.1799E-01  0.1448E+00
     -6.357  0.2134E-01  0.1455E+00
     -6.325  0.1187E-01  0.1459E+00
     -6.292  0.2995E-02  0.1460E+00
     -6.260  0.3405E-03  0.1460E+00
     -6.227  0.1731E-04  0.1460E+00
     -6.194  0.3907E-06  0.1460E+00
     -6.162  0.3889E-08  0.1460E+00
     -6.129  0.1698E-10  0.1460E+00
     -6.097  0.3235E-13  0.1460E+00
     -6.064  0.2730E-16  0.1460E+00
     -6.032  0.0000E+00  0.1460E+00
     -5.999  0.0000E+00  0.1460E+00
     -5.967  0.0000E+00  0.1460E+00
     -5.934  0.0000E+00  0.1460E+00
     -5.902  0.0000E+00  0.1460E+00
     -5.869  0.0000E+00  0.1460E+00
     -5.837  0.0000E+00  0.1460E+00
     -5.804  0.0000E+00  0.1460E+00
     -5.772  0.0000E+00  0.1460E+00
     -5.739  0.0000E+00  0.1460E+00
     -5.706  0.0000E+00  0.1460E+00
     -5.674  0.0000E+00  0.1460E+00
     -5.641  0.0000E+00  0.1460E+00
     -5.609  0.0000E+00  0.1460E+00
     -5.576  0.0000E+00  0.1460E+00
     -5.544  0.0000E+00  0.1460E+00
     -5.511  0.0000E+00  0.1460E+00
     -5.479  0.0000E+00  0.1460E+00
     -5.446  0.0000E+00  0.1460E+00
     -5.414  0.0000E+00  0.1460E+00
     -5.381  0.0000E+00  0.1460E+00
     -5.349  0.0000E+00  0.1460E+00
     -5.316  0.0000E+00  0.1460E+00
     -5.284  0.0000E+00  0.1460E+00
     -5.251  0.1024E-16  0.1460E+00
     -5.218  0.1554E-13  0.1460E+00
     -5.186  0.8930E-11  0.1460E+00
     -5.153  0.2239E-08  0.1460E+00
     -5.121  0.2460E-06  0.1460E+00
     -5.088  0.1191E-04  0.1460E+00
     -5.056  0.2559E-03  0.1460E+00
     -5.023  0.2457E-02  0.1461E+00
     -4.991  0.1062E-01  0.1464E+00
     -4.958  0.2092E-01  0.1471E+00
     -4.926  0.2015E-01  0.1478E+00
     -4.893  0.1599E-01  0.1483E+00
     -4.861  0.2078E-01  0.1490E+00
     -4.828  0.2019E-01  0.1496E+00
     -4.796  0.9838E-02  0.1499E+00
     -4.763  0.5531E-02  0.1501E+00
     -4.730  0.1318E-01  0.1506E+00
     -4.698  0.2162E-01  0.1513E+00
     -4.665  0.1634E-01  0.1518E+00
     -4.633  0.5607E-02  0.1520E+00
     -4.600  0.9215E-03  0.1520E+00
     -4.568  0.8533E-03  0.1520E+00
     -4.535  0.5287E-02  0.1522E+00
     -4.503  0.1590E-01  0.1527E+00
     -4.470  0.2170E-01  0.1534E+00
     -4.438  0.1345E-01  0.1539E+00
     -4.405  0.3781E-02  0.1540E+00
     -4.373  0.4791E-03  0.1540E+00
     -4.340  0.2718E-04  0.1540E+00
     -4.308  0.6851E-06  0.1540E+00
     -4.275  0.7622E-08  0.1540E+00
     -4.242  0.3721E-10  0.1540E+00
     -4.210  0.7936E-13  0.1540E+00
     -4.177  0.7508E-16  0.1540E+00
     -4.145  0.0000E+00  0.1540E+00
     -4.112  0.0000E+00  0.1540E+00
     -4.080  0.0000E+00  0.1540E+00
     -4.047  0.0000E+00  0.1540E+00
     -4.015  0.0000E+00  0.1540E+00
     -3.982  0.0000E+00  0.1540E+00
     -3.950  0.0000E+00  0.1540E+00
     -3.917  0.0000E+00  0.1540E+00
     -3.885  0.0000E+00  0.1540E+00
     -3.852  0.0000E+00  0.1540E+00
     -3.820  0.0000E+00  0.1540E+00
     -3.787  0.0000E+00  0.1540E+00
     -3.754  0.0000E+00  0.1540E+00
     -3.722  0.0000E+00  0.1540E+00
     -3.689  0.0000E+00  0.1540E+00
     -3.657  0.0000E+00  0.1540E+00
     -3.624  0.0000E+00  0.1540E+00
     -3.592  0.0000E+00  0.1540E+00
     -3.559  0.0000E+00  0.1540E+00
     -3.527  0.3413E-17  0.1540E+00
     -3.494  0.6719E-14  0.1540E+00
     -3.462  0.4587E-11  0.1540E+00
     -3.429  0.1370E-08  0.1540E+00
     -3.397  0.1798E-06  0.1540E+00
     -3.364  0.1042E-04  0.1540E+00
     -3.332  0.2683E-03  0.1540E+00
     -3.299  0.3092E-02  0.1541E+00
     -3.266  0.1607E-01  0.1546E+00
     -3.234  0.3791E-01  0.1559E+00
     -3.201  0.4074E-01  0.1572E+00
     -3.169  0.1995E-01  0.1578E+00
     -3.136  0.4438E-02  0.1580E+00
     -3.104  0.4457E-03  0.1580E+00
     -3.071  0.2007E-04  0.1580E+00
     -3.039  0.4020E-06  0.1580E+00
     -3.006  0.8974E-08  0.1580E+00
     -2.974  0.5152E-06  0.1580E+00
     -2.941  0.2165E-04  0.1580E+00
     -2.909  0.4052E-03  0.1580E+00
     -2.876  0.3429E-02  0.1581E+00
     -2.844  0.1357E-01  0.1586E+00
     -2.811  0.2740E-01  0.1595E+00
     -2.779  0.3335E-01  0.1605E+00
     -2.746  0.2738E-01  0.1614E+00
     -2.713  0.1354E-01  0.1619E+00
     -2.681  0.3417E-02  0.1620E+00
     -2.648  0.4031E-03  0.1620E+00
     -2.616  0.2249E-04  0.1620E+00
     -2.583  0.3708E-04  0.1620E+00
     -2.551  0.5989E-03  0.1620E+00
     -2.518  0.4404E-02  0.1622E+00
     -2.486  0.1481E-01  0.1626E+00
     -2.453  0.2441E-01  0.1634E+00
     -2.421  0.2585E-01  0.1643E+00
     -2.388  0.2554E-01  0.1651E+00
     -2.356  0.1878E-01  0.1657E+00
     -2.323  0.7166E-02  0.1660E+00
     -2.291  0.1267E-02  0.1660E+00
     -2.258  0.1011E-03  0.1660E+00
     -2.225  0.1168E-04  0.1660E+00
     -2.193  0.1900E-03  0.1660E+00
     -2.160  0.1992E-02  0.1661E+00
     -2.128  0.9394E-02  0.1664E+00
     -2.095  0.2005E-01  0.1670E+00
     -2.063  0.1943E-01  0.1677E+00
     -2.030  0.8551E-02  0.1679E+00
     -1.998  0.1702E-02  0.1680E+00
     -1.965  0.1524E-03  0.1680E+00
     -1.933  0.6084E-05  0.1680E+00
     -1.900  0.1076E-06  0.1680E+00
     -1.868  0.8382E-09  0.1680E+00
     -1.835  0.2858E-11  0.1680E+00
     -1.803  0.9856E-14  0.1680E+00
     -1.770  0.3645E-11  0.1680E+00
     -1.737  0.1034E-08  0.1680E+00
     -1.705  0.1285E-06  0.1680E+00
     -1.672  0.7029E-05  0.1680E+00
     -1.640  0.1704E-03  0.1680E+00
     -1.607  0.1844E-02  0.1681E+00
     -1.575  0.8972E-02  0.1684E+00
     -1.542  0.1975E-01  0.1690E+00
     -1.510  0.1978E-01  0.1696E+00
     -1.477  0.9478E-02  0.1700E+00
     -1.445  0.5806E-02  0.1701E+00
     -1.412  0.1397E-01  0.1706E+00
     -1.380  0.2187E-01  0.1713E+00
     -1.347  0.1699E-01  0.1719E+00
     -1.315  0.1270E-01  0.1723E+00
     -1.282  0.1938E-01  0.1729E+00
     -1.249  0.2070E-01  0.1736E+00
     -1.217  0.1039E-01  0.1739E+00
     -1.184  0.2366E-02  0.1740E+00
     -1.152  0.2603E-03  0.1740E+00
     -1.119  0.3794E-03  0.1740E+00
     -1.087  0.3538E-02  0.1741E+00
     -1.054  0.1612E-01  0.1747E+00
     -1.022  0.3578E-01  0.1758E+00
     -0.989  0.3969E-01  0.1771E+00
     -0.957  0.2487E-01  0.1779E+00
     -0.924  0.1857E-01  0.1785E+00
     -0.892  0.2231E-01  0.1792E+00
     -0.859  0.1651E-01  0.1798E+00
     -0.827  0.5699E-02  0.1800E+00
     -0.794  0.8927E-03  0.1800E+00
     -0.761  0.1430E-03  0.1800E+00
     -0.729  0.1270E-02  0.1800E+00
     -0.696  0.9015E-02  0.1803E+00
     -0.664  0.2921E-01  0.1813E+00
     -0.631  0.4332E-01  0.1827E+00
     -0.599  0.2948E-01  0.1837E+00
     -0.566  0.9186E-02  0.1840E+00
     -0.534  0.1304E-02  0.1840E+00
     -0.501  0.8371E-04  0.1840E+00
     -0.469  0.2412E-05  0.1840E+00
     -0.436  0.3097E-07  0.1840E+00
     -0.404  0.1759E-09  0.1840E+00
     -0.371  0.4399E-12  0.1840E+00
     -0.339  0.4846E-15  0.1840E+00
     -0.306  0.0000E+00  0.1840E+00
     -0.273  0.0000E+00  0.1840E+00
     -0.241  0.0000E+00  0.1840E+00
     -0.208  0.0000E+00  0.1840E+00
     -0.176  0.0000E+00  0.1840E+00
     -0.143  0.0000E+00  0.1840E+00
