   14   14 1000    1
  0.1214665E+04  0.2658256E-08  0.2624340E-08  0.2437629E-08  0.5000000E-15
  1.000000000000000E-004
  CAR 
 BLACK                                   
    154      1     92
 
  0.0000000E+00  0.0000000E+00  0.0000000E+00  0.1000000E+01
    1       -9.403265   1.000000
    2       -9.288267   1.000000
    3       -9.243044   1.000000
    4       -9.122712   1.000000
    5       -9.118832   1.000000
    6       -9.074718   1.000000
    7       -9.055313   1.000000
    8       -9.046425   1.000000
    9       -9.021668   1.000000
   10       -8.893485   1.000000
   11       -8.852011   1.000000
   12       -8.791045   1.000000
   13       -8.775595   1.000000
   14       -8.710043   1.000000
   15       -8.673624   1.000000
   16       -8.650150   1.000000
   17       -8.556668   1.000000
   18       -8.518665   1.000000
   19       -8.502614   1.000000
   20       -8.403794   1.000000
   21       -8.371643   1.000000
   22       -8.351539   1.000000
   23       -8.288744   1.000000
   24       -8.257515   1.000000
   25       -8.231662   1.000000
   26       -8.221476   1.000000
   27       -8.177937   1.000000
   28       -8.091555   1.000000
   29       -8.089999   1.000000
   30       -7.878917   1.000000
   31       -7.865850   1.000000
   32       -7.822927   1.000000
   33       -7.763334   1.000000
   34       -7.720840   1.000000
   35       -7.674725   1.000000
   36       -7.664509   1.000000
   37       -7.630676   1.000000
   38       -7.563704   1.000000
   39       -7.499467   1.000000
   40       -7.476679   1.000000
   41       -7.465295   1.000000
   42       -7.438493   1.000000
   43       -7.435485   1.000000
   44       -7.430748   1.000000
   45       -7.425288   1.000000
   46       -7.407631   1.000000
   47       -7.396901   1.000000
   48       -7.352187   1.000000
   49       -7.324599   1.000000
   50       -7.321827   1.000000
   51       -7.306464   1.000000
   52       -7.259701   1.000000
   53       -7.245802   1.000000
   54       -7.210138   1.000000
   55       -7.156048   1.000000
   56       -7.140557   1.000000
   57       -7.115041   1.000000
   58       -7.109498   1.000000
   59       -7.085429   1.000000
   60       -7.065346   1.000000
   61       -7.038658   1.000000
   62       -6.994581   1.000000
   63       -6.974296   1.000000
   64       -6.943415   1.000000
   65       -6.929856   1.000000
   66       -6.916819   1.000000
   67       -6.808035   1.000000
   68       -6.798206   1.000000
   69       -6.723805   1.000000
   70       -6.710326   1.000000
   71       -6.697827   1.000000
   72       -6.503499   1.000000
   73       -6.381266   1.000000
   74       -4.963093   1.000000
   75       -4.859315   1.000000
   76       -4.709492   1.000000
   77       -4.489934   1.000000
   78       -3.233396   0.000000
   79       -3.228575   0.000000
   80       -2.821604   0.000000
   81       -2.767998   0.000000
   82       -2.468975   0.000000
   83       -2.394051   0.000000
   84       -2.096594   0.000000
   85       -1.542252   0.000000
   86       -1.393332   0.000000
   87       -1.277759   0.000000
   88       -1.029811   0.000000
   89       -1.004887   0.000000
   90       -0.902747   0.000000
   91       -0.651452   0.000000
   92       -0.643314   0.000000
