       N       E                     dE             d eps       ncg     rms          rms(c)
DAV:   1     0.128085389981E+04    0.12809E+04   -0.21857E+04   200   0.720E+02
DAV:   2     0.734705535569E+03   -0.54615E+03   -0.51093E+03   368   0.775E+01
DAV:   3     0.179856948733E+03   -0.55485E+03   -0.52008E+03   288   0.844E+01
DAV:   4    -0.817518163223E+01   -0.18803E+03   -0.17632E+03   240   0.780E+01
DAV:   5    -0.296515646653E+02   -0.21476E+02   -0.20665E+02   208   0.309E+01    0.647E+00
RMM:   6    -0.284975612139E+02    0.11540E+01   -0.11148E+01   184   0.109E+01    0.205E+00
RMM:   7    -0.283590417547E+02    0.13852E+00   -0.13076E+00   184   0.338E+00    0.800E-01
RMM:   8    -0.283358644323E+02    0.23177E-01   -0.12115E-01   189   0.986E-01    0.313E-01
RMM:   9    -0.283322516363E+02    0.36128E-02   -0.14763E-02   184   0.467E-01    0.126E-01
RMM:  10    -0.283320308337E+02    0.22080E-03   -0.27240E-03   184   0.155E-01    0.631E-02
RMM:  11    -0.283341921324E+02   -0.21613E-02   -0.24855E-03   184   0.106E-01    0.571E-02
RMM:  12    -0.283367553934E+02   -0.25633E-02   -0.21592E-03   184   0.206E-01    0.520E-02
RMM:  13    -0.283387369236E+02   -0.19815E-02   -0.79989E-04   184   0.125E-01    0.146E-02
RMM:  14    -0.283402971436E+02   -0.15602E-02   -0.88552E-05   115   0.213E-02    0.743E-03
RMM:  15    -0.283414105610E+02   -0.11134E-02   -0.72254E-05   113   0.131E-02    0.371E-03
RMM:  16    -0.283418844933E+02   -0.47393E-03   -0.15389E-05   111   0.861E-03    0.289E-03
RMM:  17    -0.283422091515E+02   -0.32466E-03   -0.18831E-05   113   0.108E-02    0.196E-03
RMM:  18    -0.283423304187E+02   -0.12127E-03   -0.62651E-06   111   0.766E-03    0.140E-03
RMM:  19    -0.283424160562E+02   -0.85638E-04   -0.47790E-06   111   0.511E-03    0.686E-04
RMM:  20    -0.283424473101E+02   -0.31254E-04   -0.11522E-06    39   0.220E-03    0.471E-04
RMM:  21    -0.283424641365E+02   -0.16826E-04   -0.76181E-07    73   0.287E-03    0.268E-04
RMM:  22    -0.283424675357E+02   -0.33992E-05    0.00000E+00    26   0.179E-03
   1 F= -.28342468E+02 E0= -.28342468E+02  d E =-.283425E+02
       N       E                     dE             d eps       ncg     rms          rms(c)
DAV:   1    -0.283511871938E+02   -0.87231E-02   -0.46922E+00   192   0.702E+00    0.570E-02
RMM:   2    -0.283531458490E+02   -0.19587E-02   -0.20862E-02   184   0.558E-01    0.477E-02
RMM:   3    -0.283531337057E+02    0.12143E-04   -0.43539E-04   187   0.721E-02    0.444E-02
RMM:   4    -0.283530632432E+02    0.70463E-04   -0.13245E-04   184   0.356E-02    0.163E-02
RMM:   5    -0.283530632479E+02   -0.46530E-08   -0.10077E-04   184   0.317E-02    0.118E-02
RMM:   6    -0.283530574019E+02    0.58459E-05   -0.15205E-05    99   0.121E-02
   2 F= -.28353057E+02 E0= -.28353057E+02  d E =-.105899E-01
       N       E                     dE             d eps       ncg     rms          rms(c)
DAV:   1    -0.283539544774E+02   -0.89123E-03   -0.28213E+01   184   0.172E+01    0.140E-01
RMM:   2    -0.283658948271E+02   -0.11940E-01   -0.12656E-01   184   0.138E+00    0.119E-01
RMM:   3    -0.283658191289E+02    0.75698E-04   -0.26119E-03   186   0.177E-01    0.110E-01
RMM:   4    -0.283654009685E+02    0.41816E-03   -0.68835E-04   184   0.819E-02    0.456E-02
RMM:   5    -0.283653986094E+02    0.23591E-05   -0.72830E-04   184   0.857E-02    0.289E-02
RMM:   6    -0.283653619617E+02    0.36648E-04   -0.87514E-05   184   0.284E-02    0.619E-03
RMM:   7    -0.283653641122E+02   -0.21505E-05   -0.70349E-06   102   0.831E-03
   3 F= -.28365364E+02 E0= -.28365364E+02  d E =-.228966E-01
       N       E                     dE             d eps       ncg     rms          rms(c)
DAV:   1    -0.283708641913E+02   -0.55022E-02   -0.82304E+00   184   0.930E+00    0.712E-02
RMM:   2    -0.283743089463E+02   -0.34448E-02   -0.36006E-02   184   0.725E-01    0.638E-02
RMM:   3    -0.283742856290E+02    0.23317E-04   -0.75653E-04   187   0.946E-02    0.603E-02
RMM:   4    -0.283741494807E+02    0.13615E-03   -0.23095E-04   184   0.469E-02    0.228E-02
RMM:   5    -0.283741550070E+02   -0.55263E-05   -0.22658E-04   184   0.468E-02    0.171E-02
RMM:   6    -0.283741441179E+02    0.10889E-04   -0.28254E-05   111   0.168E-02    0.353E-03
RMM:   7    -0.283741462562E+02   -0.21383E-05   -0.28074E-06    98   0.678E-03
   4 F= -.28374146E+02 E0= -.28374146E+02  d E =-.878214E-02
       N       E                     dE             d eps       ncg     rms          rms(c)
DAV:   1    -0.283750310900E+02   -0.88697E-03   -0.13998E+01   184   0.121E+01    0.919E-02
RMM:   2    -0.283809032860E+02   -0.58722E-02   -0.61261E-02   184   0.946E-01    0.836E-02
RMM:   3    -0.283808643698E+02    0.38916E-04   -0.12887E-03   187   0.123E-01    0.790E-02
RMM:   4    -0.283806298998E+02    0.23447E-03   -0.37979E-04   184   0.603E-02    0.309E-02
RMM:   5    -0.283806355700E+02   -0.56701E-05   -0.40770E-04   184   0.629E-02    0.224E-02
RMM:   6    -0.283806153668E+02    0.20203E-04   -0.49383E-05   164   0.219E-02    0.439E-03
RMM:   7    -0.283806178283E+02   -0.24615E-05   -0.35634E-06   100   0.635E-03
   5 F= -.28380618E+02 E0= -.28380618E+02  d E =-.152537E-01
       N       E                     dE             d eps       ncg     rms          rms(c)
DAV:   1    -0.283550898975E+02    0.25525E-01   -0.56081E+01   184   0.243E+01    0.186E-01
RMM:   2    -0.283790304346E+02   -0.23941E-01   -0.24916E-01   184   0.193E+00    0.168E-01
RMM:   3    -0.283788719899E+02    0.15844E-03   -0.51518E-03   187   0.247E-01    0.158E-01
RMM:   4    -0.283779550546E+02    0.91694E-03   -0.13250E-03   184   0.114E-01    0.681E-02
RMM:   5    -0.283779291423E+02    0.25912E-04   -0.17641E-03   184   0.132E-01    0.425E-02
RMM:   6    -0.283778526452E+02    0.76497E-04   -0.16913E-04   184   0.406E-02    0.915E-03
RMM:   7    -0.283778574832E+02   -0.48379E-05   -0.14462E-05   107   0.120E-02
   6 F= -.28377857E+02 E0= -.28377857E+02  d E =-.124934E-01
       N       E                     dE             d eps       ncg     rms          rms(c)
DAV:   1    -0.283730651217E+02    0.47875E-02   -0.22112E+01   184   0.152E+01    0.120E-01
RMM:   2    -0.283824161809E+02   -0.93511E-02   -0.97507E-02   184   0.119E+00    0.103E-01
RMM:   3    -0.283823651139E+02    0.51067E-04   -0.20222E-03   186   0.155E-01    0.967E-02
RMM:   4    -0.283820224267E+02    0.34269E-03   -0.62592E-04   184   0.775E-02    0.353E-02
RMM:   5    -0.283820512330E+02   -0.28806E-04   -0.52000E-04   184   0.708E-02    0.251E-02
RMM:   6    -0.283820237932E+02    0.27440E-04   -0.66457E-05   184   0.252E-02    0.454E-03
RMM:   7    -0.283820259160E+02   -0.21228E-05   -0.41165E-06   101   0.628E-03
   7 F= -.28382026E+02 E0= -.28382026E+02  d E =-.166618E-01
       N       E                     dE             d eps       ncg     rms          rms(c)
DAV:   1    -0.283824392418E+02   -0.41545E-03   -0.11050E+01   184   0.107E+01    0.796E-02
RMM:   2    -0.283870863882E+02   -0.46471E-02   -0.47893E-02   184   0.824E-01    0.738E-02
RMM:   3    -0.283870538994E+02    0.32489E-04   -0.10070E-03   187   0.108E-01    0.702E-02
RMM:   4    -0.283868629933E+02    0.19091E-03   -0.32572E-04   184   0.546E-02    0.269E-02
RMM:   5    -0.283868718550E+02   -0.88617E-05   -0.33037E-04   184   0.553E-02    0.194E-02
RMM:   6    -0.283868553572E+02    0.16498E-04   -0.37286E-05   121   0.190E-02    0.381E-03
RMM:   7    -0.283868560207E+02   -0.66351E-06   -0.35839E-06    98   0.713E-03
   8 F= -.28386856E+02 E0= -.28386856E+02  d E =-.483010E-02
       N       E                     dE             d eps       ncg     rms          rms(c)
DAV:   1    -0.283847397022E+02    0.21157E-02   -0.11032E+01   184   0.107E+01    0.786E-02
RMM:   2    -0.283893730615E+02   -0.46334E-02   -0.47746E-02   184   0.823E-01    0.743E-02
RMM:   3    -0.283893387127E+02    0.34349E-04   -0.10060E-03   187   0.108E-01    0.709E-02
RMM:   4    -0.283891443037E+02    0.19441E-03   -0.32453E-04   184   0.545E-02    0.276E-02
RMM:   5    -0.283891523955E+02   -0.80919E-05   -0.34764E-04   184   0.568E-02    0.198E-02
RMM:   6    -0.283891359612E+02    0.16434E-04   -0.38715E-05   123   0.193E-02    0.392E-03
RMM:   7    -0.283891373621E+02   -0.14010E-05   -0.37424E-06    98   0.723E-03
   9 F= -.28389137E+02 E0= -.28389137E+02  d E =-.711145E-02
       N       E                     dE             d eps       ncg     rms          rms(c)
DAV:   1    -0.283886504375E+02    0.48552E-03   -0.16861E+00   184   0.418E+00    0.297E-02
RMM:   2    -0.283893530326E+02   -0.70260E-03   -0.72329E-03   184   0.319E-01    0.293E-02
RMM:   3    -0.283893479923E+02    0.50402E-05   -0.15325E-04   186   0.420E-02    0.281E-02
RMM:   4    -0.283893185915E+02    0.29401E-04   -0.54584E-05   164   0.224E-02    0.102E-02
RMM:   5    -0.283893225539E+02   -0.39624E-05   -0.53618E-05   164   0.225E-02
  10 F= -.28389323E+02 E0= -.28389323E+02  d E =-.729664E-02
       N       E                     dE             d eps       ncg     rms          rms(c)
DAV:   1    -0.283892425170E+02    0.76075E-04   -0.11687E+01   184   0.110E+01    0.818E-02
RMM:   2    -0.283941698807E+02   -0.49274E-02   -0.50277E-02   184   0.843E-01    0.763E-02
RMM:   3    -0.283941297426E+02    0.40138E-04   -0.10753E-03   189   0.111E-01    0.727E-02
RMM:   4    -0.283939126525E+02    0.21709E-03   -0.35268E-04   184   0.567E-02    0.278E-02
RMM:   5    -0.283939178572E+02   -0.52047E-05   -0.37134E-04   184   0.585E-02    0.199E-02
RMM:   6    -0.283939028513E+02    0.15006E-04   -0.36909E-05   124   0.191E-02    0.365E-03
RMM:   7    -0.283939045644E+02   -0.17132E-05   -0.34032E-06   100   0.700E-03
  11 F= -.28393905E+02 E0= -.28393905E+02  d E =-.458201E-02
       N       E                     dE             d eps       ncg     rms          rms(c)
DAV:   1    -0.283918703535E+02    0.20325E-02   -0.12410E+01   184   0.113E+01    0.822E-02
RMM:   2    -0.283970951503E+02   -0.52248E-02   -0.53250E-02   184   0.869E-01    0.798E-02
RMM:   3    -0.283970496742E+02    0.45476E-04   -0.11446E-03   189   0.114E-01    0.764E-02
RMM:   4    -0.283968105599E+02    0.23911E-03   -0.36738E-04   184   0.579E-02    0.305E-02
RMM:   5    -0.283968121583E+02   -0.15985E-05   -0.43976E-04   184   0.636E-02    0.213E-02
RMM:   6    -0.283967958123E+02    0.16346E-04   -0.41390E-05   135   0.202E-02    0.396E-03
RMM:   7    -0.283967984550E+02   -0.26427E-05   -0.37956E-06   100   0.713E-03
  12 F= -.28396798E+02 E0= -.28396798E+02  d E =-.747590E-02
       N       E                     dE             d eps       ncg     rms          rms(c)
DAV:   1    -0.283770660529E+02    0.19730E-01   -0.49758E+01   184   0.228E+01    0.177E-01
RMM:   2    -0.283985706703E+02   -0.21505E-01   -0.22046E-01   184   0.180E+00    0.161E-01
RMM:   3    -0.283983517946E+02    0.21888E-03   -0.46508E-03   186   0.232E-01    0.152E-01
RMM:   4    -0.283974906101E+02    0.86118E-03   -0.10294E-03   184   0.985E-02    0.774E-02
RMM:   5    -0.283973609819E+02    0.12963E-03   -0.21552E-03   184   0.142E-01    0.369E-02
RMM:   6    -0.283973129026E+02    0.48079E-04   -0.96771E-05   184   0.321E-02    0.107E-02
RMM:   7    -0.283973171786E+02   -0.42760E-05   -0.17203E-05   107   0.132E-02
  13 F= -.28397317E+02 E0= -.28397317E+02  d E =-.799462E-02
       N       E                     dE             d eps       ncg     rms          rms(c)
DAV:   1    -0.283930712316E+02    0.42417E-02   -0.11945E+01   184   0.111E+01    0.785E-02
RMM:   2    -0.283980893316E+02   -0.50181E-02   -0.50906E-02   184   0.849E-01    0.773E-02
RMM:   3    -0.283980564428E+02    0.32889E-04   -0.10942E-03   189   0.111E-01    0.741E-02
RMM:   4    -0.283978351295E+02    0.22131E-03   -0.37851E-04   184   0.584E-02    0.273E-02
RMM:   5    -0.283978514116E+02   -0.16282E-04   -0.39326E-04   184   0.601E-02    0.219E-02
RMM:   6    -0.283978330054E+02    0.18406E-04   -0.36371E-05   123   0.191E-02    0.555E-03
RMM:   7    -0.283978345540E+02   -0.15486E-05   -0.68788E-06   103   0.952E-03
  14 F= -.28397835E+02 E0= -.28397835E+02  d E =-.851200E-02
       N       E                     dE             d eps       ncg     rms          rms(c)
DAV:   1    -0.283948329713E+02    0.30000E-02   -0.18811E+01   184   0.140E+01    0.103E-01
RMM:   2    -0.284027792756E+02   -0.79463E-02   -0.81273E-02   184   0.108E+00    0.970E-02
RMM:   3    -0.284027106089E+02    0.68667E-04   -0.17258E-03   188   0.141E-01    0.922E-02
RMM:   4    -0.284023528144E+02    0.35779E-03   -0.59444E-04   184   0.740E-02    0.340E-02
RMM:   5    -0.284023569134E+02   -0.40990E-05   -0.57516E-04   184   0.732E-02    0.254E-02
RMM:   6    -0.284023302846E+02    0.26629E-04   -0.58650E-05   171   0.237E-02    0.508E-03
RMM:   7    -0.284023313399E+02   -0.10553E-05   -0.58441E-06   101   0.785E-03
  15 F= -.28402331E+02 E0= -.28402331E+02  d E =-.449679E-02
       N       E                     dE             d eps       ncg     rms          rms(c)
DAV:   1    -0.284019377838E+02    0.39250E-03   -0.26135E+00   184   0.523E+00    0.369E-02
RMM:   2    -0.284030294106E+02   -0.10916E-02   -0.11162E-02   184   0.399E-01    0.366E-02
RMM:   3    -0.284030191239E+02    0.10287E-04   -0.23963E-04   188   0.525E-02    0.351E-02
RMM:   4    -0.284029680328E+02    0.51091E-04   -0.91207E-05   184   0.288E-02    0.123E-02
RMM:   5    -0.284029719143E+02   -0.38815E-05   -0.83706E-05   184   0.277E-02
  16 F= -.28402972E+02 E0= -.28402972E+02  d E =-.513736E-02
       N       E                     dE             d eps       ncg     rms          rms(c)
DAV:   1    -0.283985023201E+02    0.44657E-02   -0.10450E+01   184   0.105E+01    0.773E-02
RMM:   2    -0.284029018431E+02   -0.43995E-02   -0.45067E-02   184   0.804E-01    0.719E-02
RMM:   3    -0.284028638425E+02    0.38001E-04   -0.96188E-04   189   0.105E-01    0.684E-02
RMM:   4    -0.284026659110E+02    0.19793E-03   -0.34754E-04   184   0.564E-02    0.239E-02
RMM:   5    -0.284026735299E+02   -0.76189E-05   -0.30168E-04   184   0.529E-02    0.193E-02
RMM:   6    -0.284026600985E+02    0.13431E-04   -0.34269E-05   117   0.184E-02    0.388E-03
RMM:   7    -0.284026631560E+02   -0.30575E-05   -0.40541E-06   100   0.757E-03
  17 F= -.28402663E+02 E0= -.28402663E+02  d E =-.482860E-02
       N       E                     dE             d eps       ncg     rms          rms(c)
DAV:   1    -0.284014455964E+02    0.12145E-02   -0.41340E+00   184   0.657E+00    0.487E-02
RMM:   2    -0.284031841228E+02   -0.17385E-02   -0.17760E-02   184   0.503E-01    0.448E-02
RMM:   3    -0.284031719161E+02    0.12207E-04   -0.37786E-04   188   0.659E-02    0.426E-02
RMM:   4    -0.284031004981E+02    0.71418E-04   -0.13978E-04   184   0.357E-02    0.143E-02
RMM:   5    -0.284031088924E+02   -0.83943E-05   -0.11150E-04   184   0.320E-02    0.119E-02
RMM:   6    -0.284031037808E+02    0.51117E-05   -0.12380E-05   102   0.111E-02
  18 F= -.28403104E+02 E0= -.28403104E+02  d E =-.526923E-02
       N       E                     dE             d eps       ncg     rms          rms(c)
DAV:   1    -0.284009145777E+02    0.21943E-02   -0.14760E+01   184   0.124E+01    0.891E-02
RMM:   2    -0.284071171738E+02   -0.62026E-02   -0.62949E-02   184   0.946E-01    0.863E-02
RMM:   3    -0.284070622824E+02    0.54891E-04   -0.13515E-03   189   0.125E-01    0.826E-02
RMM:   4    -0.284067639070E+02    0.29838E-03   -0.50268E-04   184   0.680E-02    0.288E-02
RMM:   5    -0.284067738349E+02   -0.99279E-05   -0.45859E-04   184   0.649E-02    0.235E-02
RMM:   6    -0.284067520902E+02    0.21745E-04   -0.48075E-05   153   0.218E-02    0.429E-03
RMM:   7    -0.284067531337E+02   -0.10435E-05   -0.54513E-06   100   0.791E-03
  19 F= -.28406753E+02 E0= -.28406753E+02  d E =-.364935E-02
       N       E                     dE             d eps       ncg     rms          rms(c)
DAV:   1    -0.284040785256E+02    0.26736E-02   -0.11084E+01   184   0.108E+01    0.758E-02
RMM:   2    -0.284087231219E+02   -0.46446E-02   -0.47107E-02   184   0.817E-01    0.754E-02
RMM:   3    -0.284086803059E+02    0.42816E-04   -0.10149E-03   189   0.108E-01    0.725E-02
RMM:   4    -0.284084506115E+02    0.22969E-03   -0.38517E-04   184   0.594E-02    0.253E-02
RMM:   5    -0.284084598092E+02   -0.91977E-05   -0.36247E-04   184   0.576E-02    0.213E-02
RMM:   6    -0.284084435696E+02    0.16240E-04   -0.39071E-05   123   0.199E-02    0.391E-03
RMM:   7    -0.284084460622E+02   -0.24926E-05   -0.50145E-06   100   0.815E-03
  20 F= -.28408446E+02 E0= -.28408446E+02  d E =-.534228E-02
       N       E                     dE             d eps       ncg     rms          rms(c)
DAV:   1    -0.284078057503E+02    0.63782E-03   -0.23253E+00   184   0.493E+00    0.337E-02
RMM:   2    -0.284087759268E+02   -0.97018E-03   -0.98255E-03   184   0.373E-01    0.349E-02
RMM:   3    -0.284087670504E+02    0.88764E-05   -0.21395E-04   189   0.495E-02    0.338E-02
RMM:   4    -0.284087191664E+02    0.47884E-04   -0.82414E-05   184   0.274E-02    0.120E-02
RMM:   5    -0.284087240547E+02   -0.48884E-05   -0.83478E-05   184   0.275E-02
  21 F= -.28408724E+02 E0= -.28408724E+02  d E =-.562027E-02
       N       E                     dE             d eps       ncg     rms          rms(c)
DAV:   1    -0.284090169316E+02   -0.29777E-03   -0.54823E+00   184   0.758E+00    0.576E-02
RMM:   2    -0.284113146843E+02   -0.22978E-02   -0.23676E-02   184   0.582E-01    0.520E-02
RMM:   3    -0.284112936085E+02    0.21076E-04   -0.49503E-04   186   0.763E-02    0.490E-02
RMM:   4    -0.284111902405E+02    0.10337E-03   -0.21244E-04   184   0.442E-02    0.145E-02
RMM:   5    -0.284111989644E+02   -0.87239E-05   -0.12722E-04   184   0.342E-02    0.137E-02
RMM:   6    -0.284111922274E+02    0.67370E-05   -0.17056E-05   102   0.131E-02
  22 F= -.28411192E+02 E0= -.28411192E+02  d E =-.246817E-02
       N       E                     dE             d eps       ncg     rms          rms(c)
DAV:   1    -0.284101807710E+02    0.10182E-02   -0.52206E+00   184   0.740E+00    0.553E-02
RMM:   2    -0.284123611335E+02   -0.21804E-02   -0.22464E-02   184   0.567E-01    0.512E-02
RMM:   3    -0.284123399297E+02    0.21204E-04   -0.46934E-04   186   0.742E-02    0.484E-02
RMM:   4    -0.284122386641E+02    0.10127E-03   -0.20444E-04   184   0.433E-02    0.145E-02
RMM:   5    -0.284122467293E+02   -0.80652E-05   -0.12789E-04   184   0.342E-02    0.137E-02
RMM:   6    -0.284122400179E+02    0.67113E-05   -0.16975E-05   100   0.131E-02
  23 F= -.28412240E+02 E0= -.28412240E+02  d E =-.351596E-02
       N       E                     dE             d eps       ncg     rms          rms(c)
DAV:   1    -0.284117803805E+02    0.46635E-03   -0.62430E+00   184   0.808E+00    0.590E-02
RMM:   2    -0.284143862856E+02   -0.26059E-02   -0.26718E-02   184   0.616E-01    0.559E-02
RMM:   3    -0.284143625923E+02    0.23693E-04   -0.56640E-04   187   0.811E-02    0.532E-02
RMM:   4    -0.284142406214E+02    0.12197E-03   -0.23434E-04   184   0.463E-02    0.166E-02
RMM:   5    -0.284142499243E+02   -0.93029E-05   -0.16837E-04   184   0.393E-02    0.157E-02
RMM:   6    -0.284142410256E+02    0.88987E-05   -0.20276E-05   103   0.143E-02
  24 F= -.28414241E+02 E0= -.28414241E+02  d E =-.200101E-02
       N       E                     dE             d eps       ncg     rms          rms(c)
DAV:   1    -0.284141981432E+02    0.51781E-04   -0.13091E+00   184   0.370E+00    0.266E-02
RMM:   2    -0.284147419629E+02   -0.54382E-03   -0.55798E-03   184   0.281E-01    0.258E-02
RMM:   3    -0.284147368130E+02    0.51500E-05   -0.11826E-04   185   0.371E-02    0.247E-02
RMM:   4    -0.284147117826E+02    0.25030E-04   -0.50157E-05   158   0.216E-02    0.767E-03
RMM:   5    -0.284147151687E+02   -0.33861E-05   -0.36076E-05   113   0.191E-02
  25 F= -.28414715E+02 E0= -.28414715E+02  d E =-.247515E-02
       N       E                     dE             d eps       ncg     rms          rms(c)
DAV:   1    -0.284127146636E+02    0.19971E-02   -0.52319E+00   184   0.740E+00    0.559E-02
RMM:   2    -0.284149000716E+02   -0.21854E-02   -0.22475E-02   184   0.565E-01    0.503E-02
RMM:   3    -0.284148815400E+02    0.18532E-04   -0.47667E-04   188   0.743E-02    0.475E-02
RMM:   4    -0.284147846654E+02    0.96875E-04   -0.19520E-04   184   0.423E-02    0.142E-02
RMM:   5    -0.284147929833E+02   -0.83179E-05   -0.12531E-04   184   0.339E-02    0.137E-02
RMM:   6    -0.284147863004E+02    0.66828E-05   -0.15639E-05   100   0.126E-02
  26 F= -.28414786E+02 E0= -.28414786E+02  d E =-.254628E-02
       N       E                     dE             d eps       ncg     rms          rms(c)
DAV:   1    -0.284145121439E+02    0.28084E-03   -0.97615E-01   184   0.319E+00    0.239E-02
RMM:   2    -0.284149223277E+02   -0.41018E-03   -0.41884E-03   184   0.243E-01    0.217E-02
RMM:   3    -0.284149199512E+02    0.23765E-05   -0.88825E-05   184   0.322E-02
  27 F= -.28414920E+02 E0= -.28414920E+02  d E =-.267993E-02
       N       E                     dE             d eps       ncg     rms          rms(c)
DAV:   1    -0.284141610710E+02    0.76126E-03   -0.40212E+00   184   0.648E+00    0.504E-02
RMM:   2    -0.284158607431E+02   -0.16997E-02   -0.17576E-02   184   0.502E-01    0.422E-02
RMM:   3    -0.284158494880E+02    0.11255E-04   -0.36726E-04   186   0.658E-02    0.400E-02
RMM:   4    -0.284157859292E+02    0.63559E-04   -0.10808E-04   184   0.317E-02    0.149E-02
RMM:   5    -0.284157887593E+02   -0.28301E-05   -0.10223E-04   184   0.308E-02    0.103E-02
RMM:   6    -0.284157845529E+02    0.42064E-05   -0.10109E-05    97   0.102E-02
  28 F= -.28415785E+02 E0= -.28415785E+02  d E =-.864602E-03
       N       E                     dE             d eps       ncg     rms          rms(c)
DAV:   1    -0.284157883064E+02    0.45294E-06   -0.10053E-02   184   0.324E-01    0.239E-03
RMM:   2    -0.284157926988E+02   -0.43924E-05   -0.39935E-05   118   0.249E-02
  29 F= -.28415793E+02 E0= -.28415793E+02  d E =-.872748E-03
       N       E                     dE             d eps       ncg     rms          rms(c)
DAV:   1    -0.284157823258E+02    0.59805E-05   -0.20277E+00   184   0.458E+00    0.329E-02
RMM:   2    -0.284166149752E+02   -0.83265E-03   -0.85669E-03   184   0.348E-01    0.325E-02
RMM:   3    -0.284166071678E+02    0.78074E-05   -0.17900E-04   187   0.455E-02    0.310E-02
RMM:   4    -0.284165685955E+02    0.38572E-04   -0.70210E-05   177   0.255E-02    0.106E-02
RMM:   5    -0.284165717185E+02   -0.31229E-05   -0.59653E-05   171   0.237E-02
  30 F= -.28416572E+02 E0= -.28416572E+02  d E =-.779020E-03
       N       E                     dE             d eps       ncg     rms          rms(c)
DAV:   1    -0.284093659869E+02    0.72026E-02   -0.18255E+01   184   0.138E+01    0.104E-01
RMM:   2    -0.284169959011E+02   -0.76299E-02   -0.78640E-02   184   0.106E+00    0.954E-02
RMM:   3    -0.284169304811E+02    0.65420E-04   -0.16306E-03   187   0.138E-01    0.902E-02
RMM:   4    -0.284166046464E+02    0.32583E-03   -0.50679E-04   184   0.690E-02    0.355E-02
RMM:   5    -0.284166064845E+02   -0.18381E-05   -0.55804E-04   184   0.726E-02    0.243E-02
RMM:   6    -0.284165829510E+02    0.23533E-04   -0.52671E-05   160   0.226E-02    0.522E-03
RMM:   7    -0.284165851811E+02   -0.22301E-05   -0.49864E-06   100   0.754E-03
  31 F= -.28416585E+02 E0= -.28416585E+02  d E =-.792482E-03
       N       E                     dE             d eps       ncg     rms          rms(c)
DAV:   1    -0.284154565082E+02    0.11264E-02   -0.38330E+00   184   0.630E+00    0.469E-02
RMM:   2    -0.284170476055E+02   -0.15911E-02   -0.16342E-02   184   0.480E-01    0.432E-02
RMM:   3    -0.284170367429E+02    0.10863E-04   -0.34006E-04   187   0.628E-02    0.409E-02
RMM:   4    -0.284169726926E+02    0.64050E-04   -0.11987E-04   184   0.333E-02    0.142E-02
RMM:   5    -0.284169798288E+02   -0.71362E-05   -0.10185E-04   184   0.308E-02    0.114E-02
RMM:   6    -0.284169746886E+02    0.51402E-05   -0.11611E-05    99   0.108E-02
  32 F= -.28416975E+02 E0= -.28416975E+02  d E =-.118199E-02
       N       E                     dE             d eps       ncg     rms          rms(c)
DAV:   1    -0.284169926749E+02   -0.12846E-04   -0.10990E+00   184   0.336E+00    0.244E-02
RMM:   2    -0.284174466158E+02   -0.45394E-03   -0.46640E-03   184   0.255E-01    0.235E-02
RMM:   3    -0.284174431960E+02    0.34198E-05   -0.97995E-05   182   0.337E-02
  33 F= -.28417443E+02 E0= -.28417443E+02  d E =-.468507E-03
       N       E                     dE             d eps       ncg     rms          rms(c)
DAV:   1    -0.284175258527E+02   -0.79237E-04   -0.29931E-01   184   0.176E+00    0.133E-02
RMM:   2    -0.284176437158E+02   -0.11786E-03   -0.12133E-03   184   0.131E-01    0.163E-02
RMM:   3    -0.284176417565E+02    0.19593E-05   -0.23518E-05   102   0.178E-02
  34 F= -.28417642E+02 E0= -.28417642E+02  d E =-.667068E-03
       N       E                     dE             d eps       ncg     rms          rms(c)
DAV:   1    -0.284174864384E+02    0.15728E-03   -0.11933E+00   184   0.351E+00    0.275E-02
RMM:   2    -0.284179700181E+02   -0.48358E-03   -0.50097E-03   184   0.265E-01    0.255E-02
RMM:   3    -0.284179655348E+02    0.44833E-05   -0.10277E-04   184   0.344E-02    0.237E-02
RMM:   4    -0.284179445999E+02    0.20935E-04   -0.52576E-05   155   0.225E-02    0.626E-03
RMM:   5    -0.284179481128E+02   -0.35129E-05   -0.23783E-05   100   0.159E-02
  35 F= -.28417948E+02 E0= -.28417948E+02  d E =-.973424E-03
       N       E                     dE             d eps       ncg     rms          rms(c)
DAV:   1    -0.284163389791E+02    0.16056E-02   -0.47601E+00   184   0.700E+00    0.533E-02
RMM:   2    -0.284183135491E+02   -0.19746E-02   -0.20369E-02   184   0.535E-01    0.482E-02
RMM:   3    -0.284182991344E+02    0.14415E-04   -0.42465E-04   187   0.700E-02    0.455E-02
RMM:   4    -0.284182186782E+02    0.80456E-04   -0.13385E-04   184   0.355E-02    0.171E-02
RMM:   5    -0.284182236275E+02   -0.49494E-05   -0.13835E-04   184   0.362E-02    0.128E-02
RMM:   6    -0.284182174431E+02    0.61845E-05   -0.15129E-05   101   0.124E-02
  36 F= -.28418217E+02 E0= -.28418217E+02  d E =-.124275E-02
       N       E                     dE             d eps       ncg     rms          rms(c)
DAV:   1    -0.284181148796E+02    0.10875E-03   -0.17475E+00   184   0.424E+00    0.315E-02
RMM:   2    -0.284188303885E+02   -0.71551E-03   -0.73864E-03   184   0.323E-01    0.292E-02
RMM:   3    -0.284188251106E+02    0.52780E-05   -0.15529E-04   186   0.423E-02    0.277E-02
RMM:   4    -0.284187961302E+02    0.28980E-04   -0.49376E-05   148   0.219E-02    0.102E-02
RMM:   5    -0.284187998329E+02   -0.37027E-05   -0.53645E-05   164   0.230E-02
  37 F= -.28418800E+02 E0= -.28418800E+02  d E =-.582390E-03
       N       E                     dE             d eps       ncg     rms          rms(c)
DAV:   1    -0.284129773465E+02    0.58188E-02   -0.15738E+01   184   0.127E+01    0.978E-02
RMM:   2    -0.284195185905E+02   -0.65412E-02   -0.67550E-02   184   0.985E-01    0.878E-02
RMM:   3    -0.284194689010E+02    0.49689E-04   -0.14177E-03   188   0.128E-01    0.826E-02
RMM:   4    -0.284192029901E+02    0.26591E-03   -0.38573E-04   184   0.611E-02    0.343E-02
RMM:   5    -0.284192056264E+02   -0.26362E-05   -0.51263E-04   184   0.703E-02    0.229E-02
RMM:   6    -0.284191862588E+02    0.19368E-04   -0.35479E-05   124   0.194E-02    0.662E-03
RMM:   7    -0.284191880760E+02   -0.18172E-05   -0.60452E-06    99   0.951E-03
  38 F= -.28419188E+02 E0= -.28419188E+02  d E =-.970633E-03
       N       E                     dE             d eps       ncg     rms          rms(c)
DAV:   1    -0.284185025584E+02    0.68370E-03   -0.19627E+00   184   0.450E+00    0.344E-02
RMM:   2    -0.284193071830E+02   -0.80462E-03   -0.83176E-03   184   0.343E-01    0.303E-02
RMM:   3    -0.284193036321E+02    0.35509E-05   -0.17441E-04   187   0.449E-02    0.286E-02
RMM:   4    -0.284192750448E+02    0.28587E-04   -0.54839E-05   159   0.230E-02    0.102E-02
RMM:   5    -0.284192806157E+02   -0.55710E-05   -0.51919E-05   160   0.225E-02
  39 F= -.28419281E+02 E0= -.28419281E+02  d E =-.106317E-02
       N       E                     dE             d eps       ncg     rms          rms(c)
DAV:   1    -0.284187574863E+02    0.51756E-03   -0.31012E+00   184   0.567E+00    0.388E-02
RMM:   2    -0.284200212468E+02   -0.12638E-02   -0.12980E-02   184   0.430E-01    0.401E-02
RMM:   3    -0.284200112654E+02    0.99814E-05   -0.27650E-04   189   0.562E-02    0.386E-02
RMM:   4    -0.284199545139E+02    0.56751E-04   -0.81096E-05   180   0.278E-02    0.162E-02
RMM:   5    -0.284199548360E+02   -0.32213E-06   -0.12009E-04   184   0.338E-02    0.117E-02
RMM:   6    -0.284199496766E+02    0.51594E-05   -0.10492E-05    97   0.105E-02
  40 F= -.28419950E+02 E0= -.28419950E+02  d E =-.669061E-03
       N       E                     dE             d eps       ncg     rms          rms(c)
DAV:   1    -0.284198892501E+02    0.65586E-04   -0.53836E-01   184   0.236E+00    0.169E-02
RMM:   2    -0.284201080915E+02   -0.21884E-03   -0.22622E-03   184   0.179E-01    0.163E-02
RMM:   3    -0.284201060273E+02    0.20642E-05   -0.43400E-05   126   0.233E-02
  41 F= -.28420106E+02 E0= -.28420106E+02  d E =-.825412E-03
       N       E                     dE             d eps       ncg     rms          rms(c)
DAV:   1    -0.284200915200E+02    0.16571E-04   -0.13084E+00   184   0.369E+00    0.275E-02
RMM:   2    -0.284206245159E+02   -0.53300E-03   -0.55521E-03   184   0.283E-01    0.271E-02
RMM:   3    -0.284206196730E+02    0.48429E-05   -0.11619E-04   185   0.367E-02    0.256E-02
RMM:   4    -0.284205957664E+02    0.23907E-04   -0.52077E-05   158   0.224E-02    0.804E-03
RMM:   5    -0.284205989640E+02   -0.31976E-05   -0.33690E-05   113   0.188E-02
  42 F= -.28420599E+02 E0= -.28420599E+02  d E =-.492937E-03
       N       E                     dE             d eps       ncg     rms          rms(c)
DAV:   1    -0.284162664117E+02    0.43294E-02   -0.99094E+00   184   0.102E+01    0.803E-02
RMM:   2    -0.284203957838E+02   -0.41294E-02   -0.43163E-02   184   0.792E-01    0.696E-02
RMM:   3    -0.284203686636E+02    0.27120E-04   -0.89764E-04   189   0.102E-01    0.654E-02
RMM:   4    -0.284202138802E+02    0.15478E-03   -0.24118E-04   184   0.483E-02    0.275E-02
RMM:   5    -0.284202163614E+02   -0.24812E-05   -0.29707E-04   184   0.537E-02    0.177E-02
RMM:   6    -0.284202030062E+02    0.13355E-04   -0.29949E-05   114   0.173E-02    0.397E-03
RMM:   7    -0.284202041311E+02   -0.11249E-05   -0.28775E-06    98   0.698E-03
  43 F= -.28420204E+02 E0= -.28420204E+02  d E =-.981038E-04
       N       E                     dE             d eps       ncg     rms          rms(c)
DAV:   1    -0.284192403054E+02    0.96270E-03   -0.38484E+00   184   0.633E+00    0.473E-02
RMM:   2    -0.284208309590E+02   -0.15907E-02   -0.16486E-02   184   0.486E-01    0.429E-02
RMM:   3    -0.284208227865E+02    0.81725E-05   -0.34252E-04   189   0.630E-02    0.406E-02
RMM:   4    -0.284207632014E+02    0.59585E-04   -0.11741E-04   184   0.331E-02    0.140E-02
RMM:   5    -0.284207711038E+02   -0.79023E-05   -0.95804E-05   183   0.302E-02
  44 F= -.28420771E+02 E0= -.28420771E+02  d E =-.665076E-03
       N       E                     dE             d eps       ncg     rms          rms(c)
DAV:   1    -0.284206022947E+02    0.16091E-03   -0.10623E+00   184   0.332E+00    0.225E-02
RMM:   2    -0.284210389407E+02   -0.43665E-03   -0.44719E-03   184   0.252E-01    0.240E-02
RMM:   3    -0.284210353230E+02    0.36177E-05   -0.95287E-05   183   0.333E-02
  45 F= -.28421035E+02 E0= -.28421035E+02  d E =-.264219E-03
       N       E                     dE             d eps       ncg     rms          rms(c)
DAV:   1    -0.284210449124E+02   -0.59717E-05   -0.65455E-02   184   0.826E-01    0.974E-03
RMM:   2    -0.284210676598E+02   -0.22747E-04   -0.24701E-04   184   0.603E-02    0.108E-02
RMM:   3    -0.284210668664E+02    0.79339E-06   -0.53978E-06    97   0.849E-03
  46 F= -.28421067E+02 E0= -.28421067E+02  d E =-.295763E-03
       N       E                     dE             d eps       ncg     rms          rms(c)
DAV:   1    -0.284210410217E+02    0.26638E-04   -0.25946E-01   184   0.164E+00    0.144E-02
RMM:   2    -0.284211452326E+02   -0.10421E-03   -0.10922E-03   184   0.125E-01    0.121E-02
RMM:   3    -0.284211441895E+02    0.10431E-05   -0.18390E-05    98   0.160E-02
  47 F= -.28421144E+02 E0= -.28421144E+02  d E =-.373086E-03
       N       E                     dE             d eps       ncg     rms          rms(c)
DAV:   1    -0.284212568002E+02   -0.11157E-03   -0.33556E-01   184   0.187E+00    0.159E-02
RMM:   2    -0.284213926226E+02   -0.13582E-03   -0.14692E-03   184   0.146E-01    0.128E-02
RMM:   3    -0.284213914898E+02    0.11329E-05   -0.24931E-05    99   0.188E-02
  48 F= -.28421391E+02 E0= -.28421391E+02  d E =-.247300E-03
       N       E                     dE             d eps       ncg     rms          rms(c)
DAV:   1    -0.284214079719E+02   -0.15349E-04   -0.86516E-03   192   0.302E-01    0.392E-03
RMM:   2    -0.284214106542E+02   -0.26823E-05   -0.31279E-05    99   0.229E-02
  49 F= -.28421411E+02 E0= -.28421411E+02  d E =-.266465E-03
       N       E                     dE             d eps       ncg     rms          rms(c)
DAV:   1    -0.284214349948E+02   -0.27023E-04   -0.33785E-02   184   0.593E-01    0.471E-03
RMM:   2    -0.284214481180E+02   -0.13123E-04   -0.13979E-04   175   0.452E-02    0.534E-03
RMM:   3    -0.284214479407E+02    0.17734E-06   -0.24740E-06    92   0.588E-03
  50 F= -.28421448E+02 E0= -.28421448E+02  d E =-.303751E-03
       N       E                     dE             d eps       ncg     rms          rms(c)
DAV:   1    -0.284214307761E+02    0.17342E-04   -0.13493E-01   184   0.119E+00    0.106E-02
RMM:   2    -0.284214849519E+02   -0.54176E-04   -0.59406E-04   184   0.927E-02    0.808E-03
RMM:   3    -0.284214845767E+02    0.37521E-06   -0.99131E-06    94   0.119E-02
  51 F= -.28421485E+02 E0= -.28421485E+02  d E =-.340387E-03
       N       E                     dE             d eps       ncg     rms          rms(c)
DAV:   1    -0.284214962384E+02   -0.11286E-04   -0.40505E-01   184   0.205E+00    0.156E-02
RMM:   2    -0.284216606728E+02   -0.16443E-03   -0.17257E-03   184   0.157E-01    0.146E-02
RMM:   3    -0.284216588573E+02    0.18156E-05   -0.30649E-05   106   0.205E-02
  52 F= -.28421659E+02 E0= -.28421659E+02  d E =-.174281E-03
       N       E                     dE             d eps       ncg     rms          rms(c)
DAV:   1    -0.284216609589E+02   -0.28608E-06   -0.26873E-03   200   0.169E-01    0.380E-03
RMM:   2    -0.284216616623E+02   -0.70334E-06   -0.84348E-06    93   0.125E-02
  53 F= -.28421662E+02 E0= -.28421662E+02  d E =-.177086E-03
       N       E                     dE             d eps       ncg     rms          rms(c)
DAV:   1    -0.284216750852E+02   -0.14126E-04   -0.10219E-02   184   0.325E-01    0.258E-03
RMM:   2    -0.284216788195E+02   -0.37343E-05   -0.38743E-05   114   0.244E-02
  54 F= -.28421679E+02 E0= -.28421679E+02  d E =-.194243E-03
       N       E                     dE             d eps       ncg     rms          rms(c)
DAV:   1    -0.284216891346E+02   -0.14049E-04   -0.40893E-02   184   0.650E-01    0.444E-03
RMM:   2    -0.284217049316E+02   -0.15797E-04   -0.16492E-04   177   0.487E-02    0.595E-03
RMM:   3    -0.284217046652E+02    0.26636E-06   -0.30314E-06    92   0.643E-03
  55 F= -.28421705E+02 E0= -.28421705E+02  d E =-.220089E-03
       N       E                     dE             d eps       ncg     rms          rms(c)
DAV:   1    -0.284216570420E+02    0.47890E-04   -0.16325E-01   184   0.130E+00    0.101E-02
RMM:   2    -0.284217224351E+02   -0.65393E-04   -0.69026E-04   184   0.995E-02    0.971E-03
RMM:   3    -0.284217215867E+02    0.84837E-06   -0.11914E-05    96   0.129E-02
  56 F= -.28421722E+02 E0= -.28421722E+02  d E =-.237010E-03
       N       E                     dE             d eps       ncg     rms          rms(c)
DAV:   1    -0.284216924217E+02    0.30013E-04   -0.55725E-02   184   0.758E-01    0.573E-03
RMM:   2    -0.284217172365E+02   -0.24815E-04   -0.25019E-04   184   0.592E-02    0.452E-03
RMM:   3    -0.284217172594E+02   -0.22867E-07   -0.47038E-06    92   0.816E-03
  57 F= -.28421717E+02 E0= -.28421717E+02  d E =-.232683E-03
       N       E                     dE             d eps       ncg     rms          rms(c)
DAV:   1    -0.284217125364E+02    0.47001E-05   -0.19210E-02   184   0.445E-01    0.512E-03
RMM:   2    -0.284217208725E+02   -0.83361E-05   -0.90310E-05   166   0.355E-02
  58 F= -.28421721E+02 E0= -.28421721E+02  d E =-.236296E-03
       N       E                     dE             d eps       ncg     rms          rms(c)
DAV:   1    -0.284217179122E+02   -0.53758E-05   -0.47463E-03   184   0.222E-01    0.314E-03
RMM:   2    -0.284217197145E+02   -0.18023E-05   -0.19535E-05    92   0.173E-02
  59 F= -.28421720E+02 E0= -.28421720E+02  d E =-.235138E-03
       N       E                     dE             d eps       ncg     rms          rms(c)
DAV:   1    -0.284217203510E+02   -0.24387E-05   -0.10766E-03   184   0.106E-01    0.155E-03
RMM:   2    -0.284217208700E+02   -0.51898E-06   -0.50052E-06    92   0.880E-03
  60 F= -.28421721E+02 E0= -.28421721E+02  d E =-.236293E-03
       N       E                     dE             d eps       ncg     rms          rms(c)
DAV:   1    -0.284217042287E+02    0.16122E-04   -0.44661E-01   184   0.214E+00    0.162E-02
RMM:   2    -0.284218895652E+02   -0.18534E-03   -0.19271E-03   184   0.165E-01    0.150E-02
RMM:   3    -0.284218875252E+02    0.20400E-05   -0.35471E-05   115   0.216E-02
  61 F= -.28421888E+02 E0= -.28421888E+02  d E =-.166655E-03
       N       E                     dE             d eps       ncg     rms          rms(c)
DAV:   1    -0.284218812100E+02    0.83551E-05   -0.99759E-05   200   0.354E-02    0.386E-03
RMM:   2    -0.284218811949E+02    0.15145E-07   -0.10920E-06    93   0.554E-03
  62 F= -.28421881E+02 E0= -.28421881E+02  d E =-.160325E-03
       N       E                     dE             d eps       ncg     rms          rms(c)
DAV:   1    -0.284218831274E+02   -0.19174E-05   -0.24467E-04   176   0.506E-02    0.783E-04
RMM:   2    -0.284218832963E+02   -0.16884E-06   -0.93485E-07    85   0.386E-03
  63 F= -.28421883E+02 E0= -.28421883E+02  d E =-.162426E-03
       N       E                     dE             d eps       ncg     rms          rms(c)
DAV:   1    -0.284218865855E+02   -0.34580E-05   -0.97443E-04   184   0.100E-01    0.798E-04
RMM:   2    -0.284218870020E+02   -0.41659E-06   -0.35466E-06    92   0.753E-03
  64 F= -.28421887E+02 E0= -.28421887E+02  d E =-.166132E-03
       N       E                     dE             d eps       ncg     rms          rms(c)
DAV:   1    -0.284218923138E+02   -0.57283E-05   -0.38958E-03   184   0.200E-01    0.141E-03
RMM:   2    -0.284218937054E+02   -0.13916E-05   -0.13940E-05    92   0.150E-02
  65 F= -.28421894E+02 E0= -.28421894E+02  d E =-.172835E-03
       N       E                     dE             d eps       ncg     rms          rms(c)
DAV:   1    -0.284218993116E+02   -0.69978E-05   -0.15583E-02   184   0.400E-01    0.277E-03
RMM:   2    -0.284219051947E+02   -0.58832E-05   -0.61015E-05   149   0.299E-02
  66 F= -.28421905E+02 E0= -.28421905E+02  d E =-.184325E-03
       N       E                     dE             d eps       ncg     rms          rms(c)
DAV:   1    -0.284219088993E+02   -0.95878E-05   -0.30517E-01   184   0.177E+00    0.126E-02
RMM:   2    -0.284220332011E+02   -0.12430E-03   -0.12830E-03   184   0.135E-01    0.136E-02
RMM:   3    -0.284220313594E+02    0.18417E-05   -0.22597E-05    99   0.177E-02
  67 F= -.28422031E+02 E0= -.28422031E+02  d E =-.126165E-03
