 vasp.5.4.4.18Apr17-6-g9f103f2a35 (build Jun 19 2019 11:58:18) complex          
  
 executed on             LinuxIFC date 2022.07.17  11:35:46
 running on   32 total cores
 distrk:  each k-point on   32 cores,    1 groups
 distr:  one band on NCORES_PER_BAND=  16 cores,    2 groups


--------------------------------------------------------------------------------------------------------


 INCAR:
 POTCAR:   PAW_PBE Ag 06Sep2000                   

 ----------------------------------------------------------------------------- 
|                                                                             |
|           W    W    AA    RRRRR   N    N  II  N    N   GGGG   !!!           |
|           W    W   A  A   R    R  NN   N  II  NN   N  G    G  !!!           |
|           W    W  A    A  R    R  N N  N  II  N N  N  G       !!!           |
|           W WW W  AAAAAA  RRRRR   N  N N  II  N  N N  G  GGG   !            |
|           WW  WW  A    A  R   R   N   NN  II  N   NN  G    G                |
|           W    W  A    A  R    R  N    N  II  N    N   GGGG   !!!           |
|                                                                             |
|      For optimal performance we recommend to set                            |
|        NCORE= 4 - approx SQRT( number of cores)                             |
|      NCORE specifies how many cores store one orbital (NPAR=cpu/NCORE).     |
|      This setting can  greatly improve the performance of VASP for DFT.     |
|      The default,   NCORE=1            might be grossly inefficient         |
|      on modern multi-core architectures or massively parallel machines.     |
|      Do your own testing !!!!                                               |
|      Unfortunately you need to use the default for GW and RPA calculations. |
|      (for HF NCORE is supported but not extensively tested yet)             |
|                                                                             |
 ----------------------------------------------------------------------------- 

 POTCAR:   PAW_PBE Ag 06Sep2000                   
   VRHFIN =Ag : s1 d10                                                          
   LEXCH  = PE                                                                  
   EATOM  =  1037.4134 eV,   76.2477 Ry                                         
                                                                                
   TITEL  = PAW_PBE Ag 06Sep2000                                                
   LULTRA =        F    use ultrasoft PP ?                                      
   IUNSCR =        1    unscreen: 0-lin 1-nonlin 2-no                           
   RPACOR =    2.000    partial core radius                                     
   POMASS =  107.868; ZVAL   =   11.000    mass and valenz                      
   RCORE  =    2.400    outmost cutoff radius                                   
   RWIGS  =    2.840; RWIGS  =    1.503    wigner-seitz radius (au A)           
   ENMAX  =  249.846; ENMIN  =  187.385 eV                                      
   RCLOC  =    1.962    cutoff for local pot                                    
   LCOR   =        T    correct aug charges                                     
   LPAW   =        T    paw PP                                                  
   EAUG   =  412.496                                                            
   DEXC   =    -.047                                                            
   RMAX   =    2.917    core radius for proj-oper                               
   RAUG   =    1.300    factor for augmentation sphere                          
   RDEP   =    2.416    radius for radial grids                                 
   QCUT   =   -4.285; QGAM   =    8.570    optimization parameters              
                                                                                
   Description                                                                  
     l     E      TYP  RCUT    TYP  RCUT                                        
     2   .000     23  2.400                                                     
     2   .000     23  2.400                                                     
     0   .000     23  2.400                                                     
     0   .000     23  2.400                                                     
     1  -.200     23  2.400                                                     
     1  1.500     23  2.400                                                     
     3   .000      7   .000                                                     
  local pseudopotential read in
  partial core-charges read in
  atomic valenz-charges read in
  non local Contribution for L=           2  read in
    real space projection operators read in
  non local Contribution for L=           2  read in
    real space projection operators read in
  non local Contribution for L=           0  read in
    real space projection operators read in
  non local Contribution for L=           0  read in
    real space projection operators read in
  non local Contribution for L=           1  read in
    real space projection operators read in
  non local Contribution for L=           1  read in
    real space projection operators read in
    PAW grid and wavefunctions read in
 
   number of l-projection  operators is LMAX  =           6
   number of lm-projection operators is LMMAX =          18
 
 Optimization of the real space projectors (new method)

 maximal supplied QI-value         = 15.68
 optimisation between [QCUT,QGAM] = [ 10.20, 20.39] = [ 29.11,116.42] Ry 
 Optimized for a Real-space Cutoff    1.42 Angstroem

   l    n(q)    QCUT    max X(q) W(low)/X(q) W(high)/X(q)  e(spline) 
   2      8    10.195     3.831    0.87E-04    0.50E-04    0.39E-07
   2      8    10.195    20.184    0.33E-03    0.72E-03    0.15E-06
   0      9    10.195    16.770    0.37E-04    0.52E-05    0.77E-08
   0      9    10.195    80.708    0.39E-03    0.16E-03    0.65E-07
   1      8    10.195     6.696    0.51E-04    0.95E-04    0.27E-07
   1      8    10.195     8.973    0.13E-03    0.22E-03    0.14E-06
 PAW_PBE Ag 06Sep2000                   :
 energy of atom  1       EATOM=-1037.4134
 kinetic energy error for atom=    0.0091 (will be added to EATOM!!)
 
 
 POSCAR: 14-c1-6-39.xyz                          
  positions in cartesian coordinates
  No initial velocities read in
 exchange correlation table for  LEXCH =        8
   RHO(1)=    0.500       N(1)  =     2000
   RHO(2)=  100.500       N(2)  =     4000
 


--------------------------------------------------------------------------------------------------------


 ion  position               nearest neighbor table
   1  0.599  0.756  0.644-  14 2.76   6 2.82  10 2.83   8 2.89
   2  0.550  0.523  0.500-   9 2.75   4 2.79  13 2.82  11 2.82
   3  0.736  0.524  0.606-   7 2.82   9 2.82  12 2.83   5 2.84
   4  0.499  0.616  0.511-   8 2.75  11 2.79   2 2.79  13 2.83
   5  0.702  0.606  0.540-  14 2.75  11 2.77   9 2.82   3 2.84   7 2.86  12 2.96
   6  0.682  0.698  0.680-   7 2.72  14 2.75  10 2.82   1 2.82  12 3.27
   7  0.747  0.625  0.644-   6 2.72  12 2.75   3 2.82   5 2.86  14 3.59
   8  0.536  0.688  0.581-   4 2.75  10 2.79  14 2.81   1 2.89  13 2.97  11 3.25
   9  0.642  0.518  0.553-   2 2.75  12 2.80   3 2.82   5 2.82  13 2.96  11 3.01
  10  0.586  0.653  0.674-  12 2.69  13 2.77   8 2.79   6 2.82   1 2.83  14 2.91
  11  0.604  0.616  0.502-  14 2.74   5 2.77   4 2.79   2 2.82  13 2.84   9 3.01   8 3.25
  12  0.653  0.581  0.645-  10 2.69   7 2.75  13 2.77   9 2.80   3 2.83   5 2.96  14 3.18   6 3.27

  13  0.557  0.579  0.599-  12 2.77  10 2.77   2 2.82   4 2.83  11 2.84   9 2.96   8 2.97  14 3.59

  14  0.642  0.683  0.577-  11 2.74   5 2.75   6 2.75   1 2.76   8 2.81  10 2.91  12 3.18  13 3.59
                             7 3.59
 
  LATTYP: Found a simple orthorhombic cell.
 ALAT       =    24.3762947330
 B/A-ratio  =     1.0765950397
 C/A-ratio  =     1.0905088380
  
  Lattice vectors:
  
 A1 = (   0.0000000000,   0.0000000000, -24.3762947330)
 A2 = (   0.0000000000, -26.2433979950,   0.0000000000)
 A3 = ( -26.5825648440,   0.0000000000,   0.0000000000)


Analysis of symmetry for initial positions (statically):
=====================================================================
 Subroutine PRICEL returns:
 Original cell was already a primitive cell.
 

 Routine SETGRP: Setting up the symmetry group for a 
 simple orthorhombic supercell.


 Subroutine GETGRP returns: Found  1 space group operations
 (whereof  1 operations were pure point group operations)
 out of a pool of  8 trial point group operations.


The static configuration has the point symmetry C_1 .


Analysis of symmetry for dynamics (positions and initial velocities):
=====================================================================
 Subroutine PRICEL returns:
 Original cell was already a primitive cell.
 

 Routine SETGRP: Setting up the symmetry group for a 
 simple orthorhombic supercell.


 Subroutine GETGRP returns: Found  1 space group operations
 (whereof  1 operations were pure point group operations)
 out of a pool of  8 trial point group operations.


The dynamic configuration has the point symmetry C_1 .


 Subroutine INISYM returns: Found  1 space group operations
 (whereof  1 operations are pure point group operations),
 and found     1 'primitive' translations

 
 
 KPOINTS: Monkhorst Pack                          

Automatic generation of k-mesh.
Space group operators:
 irot       det(A)        alpha          n_x          n_y          n_z        tau_x        tau_y        tau_z
    1     1.000000     0.000000     1.000000     0.000000     0.000000     0.000000     0.000000     0.000000
 
 Subroutine IBZKPT returns following result:
 ===========================================
 
 Found      1 irreducible k-points:
 
 Following reciprocal coordinates:
            Coordinates               Weight
  0.000000  0.000000  0.000000      1.000000
 
 Following cartesian coordinates:
            Coordinates               Weight
  0.000000  0.000000  0.000000      1.000000
 


--------------------------------------------------------------------------------------------------------




 Dimension of arrays:
   k-points           NKPTS =      1   k-points in BZ     NKDIM =      1   number of bands    NBANDS=     92
   number of dos      NEDOS =    301   number of ions     NIONS =     14
   non local maximal  LDIM  =      6   non local SUM 2l+1 LMDIM =     18
   total plane-waves  NPLWV = ******
   max r-space proj   IRMAX =   1572   max aug-charges    IRDMAX=   6416
   dimension x,y,z NGX =   140 NGY =  128 NGZ =  120
   dimension x,y,z NGXF=   280 NGYF=  256 NGZF=  240
   support grid    NGXF=   280 NGYF=  256 NGZF=  240
   ions per type =              14
   NGX,Y,Z   is equivalent  to a cutoff of   8.76,  8.11,  8.18 a.u.
   NGXF,Y,Z  is equivalent  to a cutoff of  17.51, 16.22, 16.37 a.u.

 SYSTEM =  BLACK                                   
 POSCAR =  14-c1-6-39.xyz                          

 Startparameter for this run:
   NWRITE =      2    write-flag & timer
   PREC   = normal    normal or accurate (medium, high low for compatibility)
   ISTART =      0    job   : 0-new  1-cont  2-samecut
   ICHARG =      2    charge: 1-file 2-atom 10-const
   ISPIN  =      1    spin polarized calculation?
   LNONCOLLINEAR =      F non collinear calculations
   LSORBIT =      F    spin-orbit coupling
   INIWAV =      1    electr: 0-lowe 1-rand  2-diag
   LASPH  =      F    aspherical Exc in radial PAW
   METAGGA=      F    non-selfconsistent MetaGGA calc.

 Electronic Relaxation 1
   ENCUT  =  400.0 eV  29.40 Ry    5.42 a.u.  43.35 42.80 39.75*2*pi/ulx,y,z
   ENINI  =  400.0     initial cutoff
   ENAUG  =  412.5 eV  augmentation charge cutoff
   NELM   =    200;   NELMIN=  2; NELMDL= -5     # of ELM steps 
   EDIFF  = 0.1E-04   stopping-criterion for ELM
   LREAL  =      T    real-space projection
   NLSPLINE    = F    spline interpolate recip. space projectors
   LCOMPAT=      F    compatible to vasp.4.4
   GGA_COMPAT  = T    GGA compatible to vasp.4.4-vasp.4.6
   LMAXPAW     = -100 max onsite density
   LMAXMIX     =    2 max onsite mixed and CHGCAR
   VOSKOWN=      0    Vosko Wilk Nusair interpolation
   ROPT   =   -0.00050
 Ionic relaxation
   EDIFFG = -.1E-01   stopping-criterion for IOM
   NSW    =   1000    number of steps for IOM
   NBLOCK =      1;   KBLOCK =   1000    inner block; outer block 
   IBRION =      2    ionic relax: 0-MD 1-quasi-New 2-CG
   NFREE  =      1    steps in history (QN), initial steepest desc. (CG)
   ISIF   =      2    stress and relaxation
   IWAVPR =     11    prediction:  0-non 1-charg 2-wave 3-comb
   ISYM   =      2    0-nonsym 1-usesym 2-fastsym
   LCORR  =      T    Harris-Foulkes like correction to forces

   POTIM  = 0.5000    time-step for ionic-motion
   TEIN   =    0.0    initial temperature
   TEBEG  =    0.0;   TEEND  =   0.0 temperature during run
   SMASS  =  -3.00    Nose mass-parameter (am)
   estimated Nose-frequenzy (Omega)   =  0.10E-29 period in steps =****** mass=  -0.161E-25a.u.
   SCALEE = 1.0000    scale energy and forces
   NPACO  =    256;   APACO  = 16.0  distance and # of slots for P.C.
   PSTRESS=    0.0 pullay stress

  Mass of Ions in am
   POMASS = 107.87
  Ionic Valenz
   ZVAL   =  11.00
  Atomic Wigner-Seitz radii
   RWIGS  =  -1.00
  virtual crystal weights 
   VCA    =   1.00
   NELECT =     154.0000    total number of electrons
   NUPDOWN=      -1.0000    fix difference up-down

 DOS related values:
   EMIN   =  10.00;   EMAX   =-10.00  energy-range for DOS
   EFERMI =   0.00
   ISMEAR =     0;   SIGMA  =   0.05  broadening in eV -4-tet -1-fermi 0-gaus

 Electronic relaxation 2 (details)
   IALGO  =     68    algorithm
   LDIAG  =      T    sub-space diagonalisation (order eigenvalues)
   LSUBROT=      F    optimize rotation matrix (better conditioning)
   TURBO    =      0    0=normal 1=particle mesh
   IRESTART =      0    0=no restart 2=restart with 2 vectors
   NREBOOT  =      0    no. of reboots
   NMIN     =      0    reboot dimension
   EREF     =   0.00    reference energy to select bands
   IMIX   =      4    mixing-type and parameters
     AMIX     =   0.40;   BMIX     =  1.00
     AMIX_MAG =   1.60;   BMIX_MAG =  1.00
     AMIN     =   0.10
     WC   =   100.;   INIMIX=   1;  MIXPRE=   1;  MAXMIX= -45

 Intra band minimization:
   WEIMIN = 0.0010     energy-eigenvalue tresh-hold
   EBREAK =  0.27E-07  absolut break condition
   DEPER  =   0.30     relativ break condition  

   TIME   =   0.40     timestep for ELM

  volume/ion in A,a.u.               =    1214.67      8196.97
  Fermi-wavevector in a.u.,A,eV,Ry     =   0.341235  0.644841  1.584280  0.116441
  Thomas-Fermi vector in A             =   1.245606
 
 Write flags
   LWAVE        =      F    write WAVECAR
   LDOWNSAMPLE  =      F    k-point downsampling of WAVECAR
   LCHARG       =      F    write CHGCAR
   LVTOT        =      F    write LOCPOT, total local potential
   LVHAR        =      F    write LOCPOT, Hartree potential only
   LELF         =      F    write electronic localiz. function (ELF)
   LORBIT       =      0    0 simple, 1 ext, 2 COOP (PROOUT), +10 PAW based schemes


 Dipole corrections
   LMONO  =      F    monopole corrections only (constant potential shift)
   LDIPOL =      F    correct potential (dipole corrections)
   IDIPOL =      0    1-x, 2-y, 3-z, 4-all directions 
   EPSILON=  1.0000000 bulk dielectric constant

 Exchange correlation treatment:
   GGA     =    PE    GGA type
   LEXCH   =     8    internal setting for exchange type
   VOSKOWN=      0    Vosko Wilk Nusair interpolation
   LHFCALC =     F    Hartree Fock is set to
   LHFONE  =     F    Hartree Fock one center treatment
   AEXX    =    0.0000 exact exchange contribution

 Linear response parameters
   LEPSILON=     F    determine dielectric tensor
   LRPA    =     F    only Hartree local field effects (RPA)
   LNABLA  =     F    use nabla operator in PAW spheres
   LVEL    =     F    velocity operator in full k-point grid
   LINTERFAST=   F  fast interpolation
   KINTER  =     0    interpolate to denser k-point grid
   CSHIFT  =0.1000    complex shift for real part using Kramers Kronig
   OMEGAMAX=  -1.0    maximum frequency
   DEG_THRESHOLD= 0.2000000E-02 threshold for treating states as degnerate
   RTIME   =   -0.100 relaxation time in fs
  (WPLASMAI=    0.000 imaginary part of plasma frequency in eV, 0.658/RTIME)
   DFIELD  = 0.0000000 0.0000000 0.0000000 field for delta impulse in time
 
 Orbital magnetization related:
   ORBITALMAG=     F  switch on orbital magnetization
   LCHIMAG   =     F  perturbation theory with respect to B field
   DQ        =  0.001000  dq finite difference perturbation B field
   LLRAUG    =     F  two centre corrections for induced B field



--------------------------------------------------------------------------------------------------------


 conjugate gradient relaxation of ions
 charge density and potential will be updated during run
 non-spin polarized calculation
 RMM-DIIS sequential band-by-band and
  variant of blocked Davidson during initial phase
 perform sub-space diagonalisation
    before iterative eigenvector-optimisation
 modified Broyden-mixing scheme, WC =      100.0
 initial mixing is a Kerker type mixing with AMIX =  0.4000 and BMIX =      1.0000
 Hartree-type preconditioning will be used
 using additional bands           15
 real space projection scheme for non local part
 use partial core corrections
 calculate Harris-corrections to forces 
   (improved forces if not selfconsistent)
 use gradient corrections 
 use of overlap-Matrix (Vanderbilt PP)
 Gauss-broadening in eV      SIGMA  =   0.05


--------------------------------------------------------------------------------------------------------


  energy-cutoff  :      400.00
  volume of cell :    17005.31
      direct lattice vectors                 reciprocal lattice vectors
    26.582564844  0.000000000  0.000000000     0.037618642  0.000000000  0.000000000
     0.000000000 26.243397995  0.000000000     0.000000000  0.038104822  0.000000000
     0.000000000  0.000000000 24.376294733     0.000000000  0.000000000  0.041023462

  length of vectors
    26.582564844 26.243397995 24.376294733     0.037618642  0.038104822  0.041023462


 
 k-points in units of 2pi/SCALE and weight: Monkhorst Pack                          
   0.00000000  0.00000000  0.00000000       1.000
 
 k-points in reciprocal lattice and weights: Monkhorst Pack                          
   0.00000000  0.00000000  0.00000000       1.000
 
 position of ions in fractional coordinates (direct lattice) 
   0.59899559  0.75617673  0.64441453
   0.55001868  0.52301278  0.50037105
   0.73564963  0.52405267  0.60587691
   0.49909496  0.61560123  0.51080263
   0.70188770  0.60601328  0.53965742
   0.68189680  0.69756709  0.67990181
   0.74672211  0.62470053  0.64421736
   0.53612292  0.68843593  0.58101028
   0.64159106  0.51827316  0.55281057
   0.58575126  0.65285471  0.67417517
   0.60385787  0.61577643  0.50213455
   0.65272211  0.58074478  0.64499141
   0.55748244  0.57865221  0.59917791
   0.64159693  0.68346343  0.57717370
 
 position of ions in cartesian coordinates  (Angst):
  15.92283902 19.84464686 15.70843863
  14.62090722 13.72563242 12.19719229
  19.55545400 13.75292275 14.76903416
  13.26722406 16.15546820 12.45147548
  18.65797534 15.90384772 13.15484843
  18.12656591 18.30653065 16.57348703
  19.84978890 16.39426473 15.70363223
  14.25152236 18.06689821 14.16287784
  17.05513600 13.60124887 13.47547339
  15.57077098 17.13312611 16.43389265
  16.05209096 16.16006594 12.24017990
  17.35102770 15.24071646 15.72250062
  14.81931324 15.18580020 14.60573744
  17.05529211 17.93640282 14.06935617
 


--------------------------------------------------------------------------------------------------------


 k-point  1 :   0.0000 0.0000 0.0000  plane waves:  308917

 maximum and minimum number of plane-waves per node :     19317    19294

 maximum number of plane-waves:    308917
 maximum index in each direction: 
   IXMAX=   43   IYMAX=   42   IZMAX=   39
   IXMIN=  -43   IYMIN=  -42   IZMIN=  -39


 real space projection operators:
  total allocation   :       2907.42 KBytes
  max/ min on nodes  :        198.42        163.97


 parallel 3D FFT for wavefunctions:
    minimum data exchange during FFTs selected (reduces bandwidth)
 parallel 3D FFT for charge:
    minimum data exchange during FFTs selected (reduces bandwidth)


 total amount of memory used by VASP MPI-rank0    99937. kBytes
=======================================================================

   base      :      30000. kBytes
   nonlr-proj:        578. kBytes
   fftplans  :      22879. kBytes
   grid      :      32237. kBytes
   one-center:         15. kBytes
   wavefun   :      14228. kBytes
 
     INWAV:  cpu time    0.0000: real time    0.0000
 Broyden mixing: mesh for mixing (old mesh)
   NGX = 87   NGY = 85   NGZ = 79
  (NGX  =280   NGY  =256   NGZ  =240)
  gives a total of 584205 points

 initial charge density was supplied:
 charge density of overlapping atoms calculated
 number of electron     154.0000000 magnetization 
 keeping initial charge density in first step


--------------------------------------------------------------------------------------------------------


 Maximum index for non-local projection operator          149
 Maximum index for augmentation-charges          379 (set IRDMAX)


--------------------------------------------------------------------------------------------------------


 First call to EWALD:  gamma=   0.069
 Maximum number of real-space cells 3x 3x 3
 Maximum number of reciprocal cells 3x 3x 3

    FEWALD:  cpu time    0.0024: real time    0.0024


--------------------------------------- Iteration      1(   1)  ---------------------------------------


    POTLOK:  cpu time    0.3746: real time    0.3827
    SETDIJ:  cpu time    0.0028: real time    0.0061
     EDDAV:  cpu time    2.8418: real time    2.9735
       DOS:  cpu time    0.0007: real time    0.0010
    --------------------------------------------
      LOOP:  cpu time    3.2199: real time    3.3634

 eigenvalue-minimisations  :   200
 total energy-change (2. order) : 0.1280854E+04  (-0.2185737E+04)
 number of electron     154.0000000 magnetization 
 augmentation part      154.0000000 magnetization 

 Free energy of the ion-electron system (eV)
  ---------------------------------------------------
  alpha Z        PSCENC =        20.46726801
  Ewald energy   TEWEN  =     23258.10841164
  -Hartree energ DENC   =    -37104.81103348
  -exchange      EXHF   =         0.00000000
  -V(xc)+E(xc)   XCENC  =      -161.42572731
  PAW double counting   =     12189.36871779   -11539.77929811
  entropy T*S    EENTRO =        -0.05663072
  eigenvalues    EBANDS =        95.32159474
  atomic energy  EATOM  =     14523.66059727
  Solvation  Ediel_sol  =         0.00000000
  ---------------------------------------------------
  free energy    TOTEN  =      1280.85389981 eV

  energy without entropy =     1280.91053054  energy(sigma->0) =     1280.88221517


--------------------------------------------------------------------------------------------------------




--------------------------------------- Iteration      1(   2)  ---------------------------------------


     EDDAV:  cpu time    4.6414: real time    4.8102
       DOS:  cpu time    0.0019: real time    0.0019
    --------------------------------------------
      LOOP:  cpu time    4.6433: real time    4.8121

 eigenvalue-minimisations  :   368
 total energy-change (2. order) :-0.5461484E+03  (-0.5109254E+03)
 number of electron     154.0000000 magnetization 
 augmentation part      154.0000000 magnetization 

 Free energy of the ion-electron system (eV)
  ---------------------------------------------------
  alpha Z        PSCENC =        20.46726801
  Ewald energy   TEWEN  =     23258.10841164
  -Hartree energ DENC   =    -37104.81103348
  -exchange      EXHF   =         0.00000000
  -V(xc)+E(xc)   XCENC  =      -161.42572731
  PAW double counting   =     12189.36871779   -11539.77929811
  entropy T*S    EENTRO =        -0.08418228
  eigenvalues    EBANDS =      -450.79921795
  atomic energy  EATOM  =     14523.66059727
  Solvation  Ediel_sol  =         0.00000000
  ---------------------------------------------------
  free energy    TOTEN  =       734.70553557 eV

  energy without entropy =      734.78971785  energy(sigma->0) =      734.74762671


--------------------------------------------------------------------------------------------------------




--------------------------------------- Iteration      1(   3)  ---------------------------------------


     EDDAV:  cpu time    3.7175: real time    4.0143
       DOS:  cpu time    0.0018: real time    0.0018
    --------------------------------------------
      LOOP:  cpu time    3.7192: real time    4.0160

 eigenvalue-minimisations  :   288
 total energy-change (2. order) :-0.5548486E+03  (-0.5200772E+03)
 number of electron     154.0000000 magnetization 
 augmentation part      154.0000000 magnetization 

 Free energy of the ion-electron system (eV)
  ---------------------------------------------------
  alpha Z        PSCENC =        20.46726801
  Ewald energy   TEWEN  =     23258.10841164
  -Hartree energ DENC   =    -37104.81103348
  -exchange      EXHF   =         0.00000000
  -V(xc)+E(xc)   XCENC  =      -161.42572731
  PAW double counting   =     12189.36871779   -11539.77929811
  entropy T*S    EENTRO =        -0.03993412
  eigenvalues    EBANDS =     -1005.69205295
  atomic energy  EATOM  =     14523.66059727
  Solvation  Ediel_sol  =         0.00000000
  ---------------------------------------------------
  free energy    TOTEN  =       179.85694873 eV

  energy without entropy =      179.89688285  energy(sigma->0) =      179.87691579


--------------------------------------------------------------------------------------------------------




--------------------------------------- Iteration      1(   4)  ---------------------------------------


     EDDAV:  cpu time    2.9461: real time    2.9783
       DOS:  cpu time    0.0004: real time    0.0004
    --------------------------------------------
      LOOP:  cpu time    2.9465: real time    2.9787

 eigenvalue-minimisations  :   240
 total energy-change (2. order) :-0.1880321E+03  (-0.1763153E+03)
 number of electron     154.0000000 magnetization 
 augmentation part      154.0000000 magnetization 

 Free energy of the ion-electron system (eV)
  ---------------------------------------------------
  alpha Z        PSCENC =        20.46726801
  Ewald energy   TEWEN  =     23258.10841164
  -Hartree energ DENC   =    -37104.81103348
  -exchange      EXHF   =         0.00000000
  -V(xc)+E(xc)   XCENC  =      -161.42572731
  PAW double counting   =     12189.36871779   -11539.77929811
  entropy T*S    EENTRO =        -0.00000000
  eigenvalues    EBANDS =     -1193.76411743
  atomic energy  EATOM  =     14523.66059727
  Solvation  Ediel_sol  =         0.00000000
  ---------------------------------------------------
  free energy    TOTEN  =        -8.17518163 eV

  energy without entropy =       -8.17518163  energy(sigma->0) =       -8.17518163


--------------------------------------------------------------------------------------------------------




--------------------------------------- Iteration      1(   5)  ---------------------------------------


     EDDAV:  cpu time    2.9762: real time    3.1232
       DOS:  cpu time    0.0003: real time    0.0003
    CHARGE:  cpu time    0.2073: real time    0.2147
    MIXING:  cpu time    0.0132: real time    0.0172
    --------------------------------------------
      LOOP:  cpu time    3.1971: real time    3.3555

 eigenvalue-minimisations  :   208
 total energy-change (2. order) :-0.2147638E+02  (-0.2066497E+02)
 number of electron     153.9999879 magnetization 
 augmentation part       73.1807313 magnetization 

 Broyden mixing:
  rms(total) = 0.64658E+00    rms(broyden)= 0.64654E+00
  rms(prec ) = 0.71195E+00
  weight for this iteration     100.00

 Free energy of the ion-electron system (eV)
  ---------------------------------------------------
  alpha Z        PSCENC =        20.46726801
  Ewald energy   TEWEN  =     23258.10841164
  -Hartree energ DENC   =    -37104.81103348
  -exchange      EXHF   =         0.00000000
  -V(xc)+E(xc)   XCENC  =      -161.42572731
  PAW double counting   =     12189.36871779   -11539.77929811
  entropy T*S    EENTRO =        -0.00000000
  eigenvalues    EBANDS =     -1215.24050046
  atomic energy  EATOM  =     14523.66059727
  Solvation  Ediel_sol  =         0.00000000
  ---------------------------------------------------
  free energy    TOTEN  =       -29.65156467 eV

  energy without entropy =      -29.65156467  energy(sigma->0) =      -29.65156467


--------------------------------------------------------------------------------------------------------




--------------------------------------- Iteration      1(   6)  ---------------------------------------


    POTLOK:  cpu time    0.3578: real time    0.3616
    SETDIJ:  cpu time    0.0020: real time    0.0020
    EDDIAG:  cpu time    0.4846: real time    0.4928
  RMM-DIIS:  cpu time    1.7275: real time    1.9054
    ORTHCH:  cpu time    0.0445: real time    0.0455
       DOS:  cpu time    0.0005: real time    0.0005
    CHARGE:  cpu time    0.2151: real time    0.3298
    MIXING:  cpu time    0.0128: real time    0.0152
    --------------------------------------------
      LOOP:  cpu time    2.8447: real time    3.1527

 eigenvalue-minimisations  :   184
 total energy-change (2. order) : 0.1154003E+01  (-0.1114828E+01)
 number of electron     153.9999878 magnetization 
 augmentation part       74.0560784 magnetization 

 Broyden mixing:
  rms(total) = 0.20505E+00    rms(broyden)= 0.20503E+00
  rms(prec ) = 0.23188E+00
  weight for this iteration     100.00

 eigenvalues of (default mixing * dielectric matrix)
  average eigenvalue GAMMA=   1.3277
  1.3277

 Free energy of the ion-electron system (eV)
  ---------------------------------------------------
  alpha Z        PSCENC =        20.46726801
  Ewald energy   TEWEN  =     23258.10841164
  -Hartree energ DENC   =    -37069.20557227
  -exchange      EXHF   =         0.00000000
  -V(xc)+E(xc)   XCENC  =      -163.97319061
  PAW double counting   =     12128.62197665   -11487.16285675
  entropy T*S    EENTRO =        -0.00000000
  eigenvalues    EBANDS =     -1239.01419515
  atomic energy  EATOM  =     14523.66059727
  Solvation  Ediel_sol  =         0.00000000
  ---------------------------------------------------
  free energy    TOTEN  =       -28.49756121 eV

  energy without entropy =      -28.49756121  energy(sigma->0) =      -28.49756121


--------------------------------------------------------------------------------------------------------




--------------------------------------- Iteration      1(   7)  ---------------------------------------


    POTLOK:  cpu time    0.3586: real time    0.3617
    SETDIJ:  cpu time    0.0017: real time    0.0017
    EDDIAG:  cpu time    0.5267: real time    0.5322
  RMM-DIIS:  cpu time    1.7341: real time    1.7493
    ORTHCH:  cpu time    0.0431: real time    0.0431
       DOS:  cpu time    0.0005: real time    0.0004
    CHARGE:  cpu time    0.1973: real time    0.2005
    MIXING:  cpu time    0.0126: real time    0.0126
    --------------------------------------------
      LOOP:  cpu time    2.8745: real time    2.9015

 eigenvalue-minimisations  :   184
 total energy-change (2. order) : 0.1385195E+00  (-0.1307586E+00)
 number of electron     153.9999877 magnetization 
 augmentation part       74.3231539 magnetization 

 Broyden mixing:
  rms(total) = 0.80025E-01    rms(broyden)= 0.80014E-01
  rms(prec ) = 0.88108E-01
  weight for this iteration     100.00

 eigenvalues of (default mixing * dielectric matrix)
  average eigenvalue GAMMA=   1.7025
  1.3353  2.0698

 Free energy of the ion-electron system (eV)
  ---------------------------------------------------
  alpha Z        PSCENC =        20.46726801
  Ewald energy   TEWEN  =     23258.10841164
  -Hartree energ DENC   =    -37073.73312049
  -exchange      EXHF   =         0.00000000
  -V(xc)+E(xc)   XCENC  =      -164.68302157
  PAW double counting   =     12152.48994106   -11517.99357229
  entropy T*S    EENTRO =        -0.00000000
  eigenvalues    EBANDS =     -1226.67554538
  atomic energy  EATOM  =     14523.66059727
  Solvation  Ediel_sol  =         0.00000000
  ---------------------------------------------------
  free energy    TOTEN  =       -28.35904175 eV

  energy without entropy =      -28.35904175  energy(sigma->0) =      -28.35904175


--------------------------------------------------------------------------------------------------------




--------------------------------------- Iteration      1(   8)  ---------------------------------------


    POTLOK:  cpu time    0.3574: real time    0.3606
    SETDIJ:  cpu time    0.0022: real time    0.0022
    EDDIAG:  cpu time    0.4837: real time    0.4945
  RMM-DIIS:  cpu time    1.8191: real time    2.0608
    ORTHCH:  cpu time    0.0414: real time    0.0420
       DOS:  cpu time    0.0005: real time    0.0005
    CHARGE:  cpu time    0.2011: real time    0.2012
    MIXING:  cpu time    0.0135: real time    0.0135
    --------------------------------------------
      LOOP:  cpu time    2.9188: real time    3.1752

 eigenvalue-minimisations  :   189
 total energy-change (2. order) : 0.2317732E-01  (-0.1211490E-01)
 number of electron     153.9999877 magnetization 
 augmentation part       74.2366663 magnetization 

 Broyden mixing:
  rms(total) = 0.31329E-01    rms(broyden)= 0.31328E-01
  rms(prec ) = 0.36350E-01
  weight for this iteration     100.00

 eigenvalues of (default mixing * dielectric matrix)
  average eigenvalue GAMMA=   1.6914
  1.3010  1.3010  2.4722

 Free energy of the ion-electron system (eV)
  ---------------------------------------------------
  alpha Z        PSCENC =        20.46726801
  Ewald energy   TEWEN  =     23258.10841164
  -Hartree energ DENC   =    -37090.98610600
  -exchange      EXHF   =         0.00000000
  -V(xc)+E(xc)   XCENC  =      -164.51519911
  PAW double counting   =     12196.00411830   -11566.20869461
  entropy T*S    EENTRO =        -0.00000000
  eigenvalues    EBANDS =     -1204.86625993
  atomic energy  EATOM  =     14523.66059727
  Solvation  Ediel_sol  =         0.00000000
  ---------------------------------------------------
  free energy    TOTEN  =       -28.33586443 eV

  energy without entropy =      -28.33586443  energy(sigma->0) =      -28.33586443


--------------------------------------------------------------------------------------------------------




--------------------------------------- Iteration      1(   9)  ---------------------------------------


    POTLOK:  cpu time    0.3597: real time    0.3609
    SETDIJ:  cpu time    0.0022: real time    0.0022
    EDDIAG:  cpu time    0.4849: real time    0.4888
  RMM-DIIS:  cpu time    1.7170: real time    1.7532
    ORTHCH:  cpu time    0.0422: real time    0.0423
       DOS:  cpu time    0.0005: real time    0.0005
    CHARGE:  cpu time    0.1971: real time    0.2007
    MIXING:  cpu time    0.0135: real time    0.0136
    --------------------------------------------
      LOOP:  cpu time    2.8173: real time    2.8622

 eigenvalue-minimisations  :   184
 total energy-change (2. order) : 0.3612796E-02  (-0.1476287E-02)
 number of electron     153.9999877 magnetization 
 augmentation part       74.2856046 magnetization 

 Broyden mixing:
  rms(total) = 0.12598E-01    rms(broyden)= 0.12597E-01
  rms(prec ) = 0.17202E-01
  weight for this iteration     100.00

 eigenvalues of (default mixing * dielectric matrix)
  average eigenvalue GAMMA=   1.6181
  2.5627  1.7195  1.0236  1.1666

 Free energy of the ion-electron system (eV)
  ---------------------------------------------------
  alpha Z        PSCENC =        20.46726801
  Ewald energy   TEWEN  =     23258.10841164
  -Hartree energ DENC   =    -37094.43270258
  -exchange      EXHF   =         0.00000000
  -V(xc)+E(xc)   XCENC  =      -164.59146162
  PAW double counting   =     12194.90414968   -11566.09369205
  entropy T*S    EENTRO =        -0.00000000
  eigenvalues    EBANDS =     -1200.35482198
  atomic energy  EATOM  =     14523.66059727
  Solvation  Ediel_sol  =         0.00000000
  ---------------------------------------------------
  free energy    TOTEN  =       -28.33225164 eV

  energy without entropy =      -28.33225164  energy(sigma->0) =      -28.33225164


--------------------------------------------------------------------------------------------------------




--------------------------------------- Iteration      1(  10)  ---------------------------------------


    POTLOK:  cpu time    0.3575: real time    0.3609
    SETDIJ:  cpu time    0.0019: real time    0.0019
    EDDIAG:  cpu time    0.5214: real time    0.6445
  RMM-DIIS:  cpu time    1.8696: real time    1.8937
    ORTHCH:  cpu time    0.0409: real time    0.0409
       DOS:  cpu time    0.0004: real time    0.0004
    CHARGE:  cpu time    0.1994: real time    0.2016
    MIXING:  cpu time    0.0141: real time    0.0141
    --------------------------------------------
      LOOP:  cpu time    3.0051: real time    3.1579

 eigenvalue-minimisations  :   184
 total energy-change (2. order) : 0.2208025E-03  (-0.2724009E-03)
 number of electron     153.9999877 magnetization 
 augmentation part       74.2735771 magnetization 

 Broyden mixing:
  rms(total) = 0.63081E-02    rms(broyden)= 0.63080E-02
  rms(prec ) = 0.10744E-01
  weight for this iteration     100.00

 eigenvalues of (default mixing * dielectric matrix)
  average eigenvalue GAMMA=   1.8465
  2.9218  2.7434  1.3137  1.3137  0.9399

 Free energy of the ion-electron system (eV)
  ---------------------------------------------------
  alpha Z        PSCENC =        20.46726801
  Ewald energy   TEWEN  =     23258.10841164
  -Hartree energ DENC   =    -37099.81480655
  -exchange      EXHF   =         0.00000000
  -V(xc)+E(xc)   XCENC  =      -164.51466446
  PAW double counting   =     12195.16546194   -11566.36476133
  entropy T*S    EENTRO =        -0.00000000
  eigenvalues    EBANDS =     -1195.03953735
  atomic energy  EATOM  =     14523.66059727
  Solvation  Ediel_sol  =         0.00000000
  ---------------------------------------------------
  free energy    TOTEN  =       -28.33203083 eV

  energy without entropy =      -28.33203083  energy(sigma->0) =      -28.33203083


--------------------------------------------------------------------------------------------------------




--------------------------------------- Iteration      1(  11)  ---------------------------------------


    POTLOK:  cpu time    0.3567: real time    0.3607
    SETDIJ:  cpu time    0.0017: real time    0.0017
    EDDIAG:  cpu time    0.4899: real time    0.4929
  RMM-DIIS:  cpu time    1.7234: real time    2.3435
    ORTHCH:  cpu time    0.0769: real time    0.1423
       DOS:  cpu time    0.0003: real time    0.0003
    CHARGE:  cpu time    0.2673: real time    0.2741
    MIXING:  cpu time    0.0154: real time    0.0167
    --------------------------------------------
      LOOP:  cpu time    2.9315: real time    3.6322

 eigenvalue-minimisations  :   184
 total energy-change (2. order) :-0.2161299E-02  (-0.2485549E-03)
 number of electron     153.9999877 magnetization 
 augmentation part       74.2602078 magnetization 

 Broyden mixing:
  rms(total) = 0.57058E-02    rms(broyden)= 0.57057E-02
  rms(prec ) = 0.71887E-02
  weight for this iteration     100.00

 eigenvalues of (default mixing * dielectric matrix)
  average eigenvalue GAMMA=   1.9421
  3.9148  2.6186  1.6620  0.9456  1.2558  1.2558

 Free energy of the ion-electron system (eV)
  ---------------------------------------------------
  alpha Z        PSCENC =        20.46726801
  Ewald energy   TEWEN  =     23258.10841164
  -Hartree energ DENC   =    -37109.25673285
  -exchange      EXHF   =         0.00000000
  -V(xc)+E(xc)   XCENC  =      -164.41604340
  PAW double counting   =     12191.89738164   -11562.80506549
  entropy T*S    EENTRO =        -0.00000000
  eigenvalues    EBANDS =     -1185.99000895
  atomic energy  EATOM  =     14523.66059727
  Solvation  Ediel_sol  =         0.00000000
  ---------------------------------------------------
  free energy    TOTEN  =       -28.33419213 eV

  energy without entropy =      -28.33419213  energy(sigma->0) =      -28.33419213


--------------------------------------------------------------------------------------------------------




--------------------------------------- Iteration      1(  12)  ---------------------------------------


    POTLOK:  cpu time    0.3612: real time    0.3625
    SETDIJ:  cpu time    0.0018: real time    0.0018
    EDDIAG:  cpu time    0.4993: real time    0.5016
  RMM-DIIS:  cpu time    1.7475: real time    1.7879
    ORTHCH:  cpu time    0.0411: real time    0.0416
       DOS:  cpu time    0.0004: real time    0.0004
    CHARGE:  cpu time    0.2100: real time    0.2106
    MIXING:  cpu time    0.0136: real time    0.0203
    --------------------------------------------
      LOOP:  cpu time    2.8750: real time    2.9269

 eigenvalue-minimisations  :   184
 total energy-change (2. order) :-0.2563261E-02  (-0.2159207E-03)
 number of electron     153.9999877 magnetization 
 augmentation part       74.2809981 magnetization 

 Broyden mixing:
  rms(total) = 0.52019E-02    rms(broyden)= 0.52015E-02
  rms(prec ) = 0.58814E-02
  weight for this iteration     100.00

 eigenvalues of (default mixing * dielectric matrix)
  average eigenvalue GAMMA=   2.0164
  4.8057  2.6092  2.1245  1.4330  1.0747  1.0747  0.9929

 Free energy of the ion-electron system (eV)
  ---------------------------------------------------
  alpha Z        PSCENC =        20.46726801
  Ewald energy   TEWEN  =     23258.10841164
  -Hartree energ DENC   =    -37111.99759732
  -exchange      EXHF   =         0.00000000
  -V(xc)+E(xc)   XCENC  =      -164.43697983
  PAW double counting   =     12187.88479754   -11558.76238224
  entropy T*S    EENTRO =        -0.00000000
  eigenvalues    EBANDS =     -1183.26087046
  atomic energy  EATOM  =     14523.66059727
  Solvation  Ediel_sol  =         0.00000000
  ---------------------------------------------------
  free energy    TOTEN  =       -28.33675539 eV

  energy without entropy =      -28.33675539  energy(sigma->0) =      -28.33675539


--------------------------------------------------------------------------------------------------------




--------------------------------------- Iteration      1(  13)  ---------------------------------------


    POTLOK:  cpu time    0.3611: real time    0.3639
    SETDIJ:  cpu time    0.0018: real time    0.0018
    EDDIAG:  cpu time    0.4873: real time    0.4941
  RMM-DIIS:  cpu time    1.9380: real time    2.0811
    ORTHCH:  cpu time    0.0428: real time    0.0438
       DOS:  cpu time    0.0005: real time    0.0005
    CHARGE:  cpu time    0.2061: real time    0.2086
    MIXING:  cpu time    0.0162: real time    0.0163
    --------------------------------------------
      LOOP:  cpu time    3.0538: real time    3.2100

 eigenvalue-minimisations  :   184
 total energy-change (2. order) :-0.1981530E-02  (-0.7998943E-04)
 number of electron     153.9999877 magnetization 
 augmentation part       74.2676372 magnetization 

 Broyden mixing:
  rms(total) = 0.14640E-02    rms(broyden)= 0.14636E-02
  rms(prec ) = 0.20400E-02
  weight for this iteration     100.00

 eigenvalues of (default mixing * dielectric matrix)
  average eigenvalue GAMMA=   2.0579
  5.2905  3.0305  2.1600  1.6520  1.2228  1.0185  1.0446  1.0446

 Free energy of the ion-electron system (eV)
  ---------------------------------------------------
  alpha Z        PSCENC =        20.46726801
  Ewald energy   TEWEN  =     23258.10841164
  -Hartree energ DENC   =    -37114.14767102
  -exchange      EXHF   =         0.00000000
  -V(xc)+E(xc)   XCENC  =      -164.40582939
  PAW double counting   =     12189.15286034   -11560.09266386
  entropy T*S    EENTRO =        -0.00000000
  eigenvalues    EBANDS =     -1181.08170992
  atomic energy  EATOM  =     14523.66059727
  Solvation  Ediel_sol  =         0.00000000
  ---------------------------------------------------
  free energy    TOTEN  =       -28.33873692 eV

  energy without entropy =      -28.33873692  energy(sigma->0) =      -28.33873692


--------------------------------------------------------------------------------------------------------




--------------------------------------- Iteration      1(  14)  ---------------------------------------


    POTLOK:  cpu time    0.3606: real time    0.3648
    SETDIJ:  cpu time    0.0022: real time    0.0022
    EDDIAG:  cpu time    0.4887: real time    0.4929
  RMM-DIIS:  cpu time    1.1760: real time    1.1910
    ORTHCH:  cpu time    0.0415: real time    0.0415
       DOS:  cpu time    0.0004: real time    0.0004
    CHARGE:  cpu time    0.2083: real time    0.2099
    MIXING:  cpu time    0.0181: real time    0.0181
    --------------------------------------------
      LOOP:  cpu time    2.2957: real time    2.3209

 eigenvalue-minimisations  :   115
 total energy-change (2. order) :-0.1560220E-02  (-0.8855165E-05)
 number of electron     153.9999877 magnetization 
 augmentation part       74.2689682 magnetization 

 Broyden mixing:
  rms(total) = 0.74323E-03    rms(broyden)= 0.74320E-03
  rms(prec ) = 0.11153E-02
  weight for this iteration     100.00

 eigenvalues of (default mixing * dielectric matrix)
  average eigenvalue GAMMA=   2.2342
  6.6178  3.4345  2.6254  1.8344  1.4926  1.1027  1.1027  0.9489  0.9489

 Free energy of the ion-electron system (eV)
  ---------------------------------------------------
  alpha Z        PSCENC =        20.46726801
  Ewald energy   TEWEN  =     23258.10841164
  -Hartree energ DENC   =    -37114.81604995
  -exchange      EXHF   =         0.00000000
  -V(xc)+E(xc)   XCENC  =      -164.40814015
  PAW double counting   =     12188.92504067   -11559.85870261
  entropy T*S    EENTRO =        -0.00000000
  eigenvalues    EBANDS =     -1180.41872203
  atomic energy  EATOM  =     14523.66059727
  Solvation  Ediel_sol  =         0.00000000
  ---------------------------------------------------
  free energy    TOTEN  =       -28.34029714 eV

  energy without entropy =      -28.34029714  energy(sigma->0) =      -28.34029714


--------------------------------------------------------------------------------------------------------




--------------------------------------- Iteration      1(  15)  ---------------------------------------


    POTLOK:  cpu time    0.3641: real time    0.3668
    SETDIJ:  cpu time    0.0022: real time    0.0022
    EDDIAG:  cpu time    0.4937: real time    0.5181
  RMM-DIIS:  cpu time    1.2305: real time    1.3711
    ORTHCH:  cpu time    0.0417: real time    0.0417
       DOS:  cpu time    0.0005: real time    0.0004
    CHARGE:  cpu time    0.2089: real time    0.2106
    MIXING:  cpu time    0.0179: real time    0.0189
    --------------------------------------------
      LOOP:  cpu time    2.3595: real time    2.5298

 eigenvalue-minimisations  :   113
 total energy-change (2. order) :-0.1113417E-02  (-0.7225427E-05)
 number of electron     153.9999877 magnetization 
 augmentation part       74.2696169 magnetization 

 Broyden mixing:
  rms(total) = 0.37107E-03    rms(broyden)= 0.37103E-03
  rms(prec ) = 0.54146E-03
  weight for this iteration     100.00

 eigenvalues of (default mixing * dielectric matrix)
  average eigenvalue GAMMA=   2.2254
  6.9801  3.7510  2.6038  1.9362  1.4802  1.4802  1.0828  1.0828  0.9286  0.9286

 Free energy of the ion-electron system (eV)
  ---------------------------------------------------
  alpha Z        PSCENC =        20.46726801
  Ewald energy   TEWEN  =     23258.10841164
  -Hartree energ DENC   =    -37115.36381787
  -exchange      EXHF   =         0.00000000
  -V(xc)+E(xc)   XCENC  =      -164.41120925
  PAW double counting   =     12189.14564962   -11560.10803383
  entropy T*S    EENTRO =        -0.00000000
  eigenvalues    EBANDS =     -1179.84027615
  atomic energy  EATOM  =     14523.66059727
  Solvation  Ediel_sol  =         0.00000000
  ---------------------------------------------------
  free energy    TOTEN  =       -28.34141056 eV

  energy without entropy =      -28.34141056  energy(sigma->0) =      -28.34141056


--------------------------------------------------------------------------------------------------------




--------------------------------------- Iteration      1(  16)  ---------------------------------------


    POTLOK:  cpu time    0.3639: real time    0.3671
    SETDIJ:  cpu time    0.0019: real time    0.0019
    EDDIAG:  cpu time    0.4903: real time    0.4958
  RMM-DIIS:  cpu time    1.1271: real time    1.1411
    ORTHCH:  cpu time    0.0410: real time    0.0415
       DOS:  cpu time    0.0005: real time    0.0005
    CHARGE:  cpu time    0.2088: real time    0.2103
    MIXING:  cpu time    0.0198: real time    0.0198
    --------------------------------------------
      LOOP:  cpu time    2.2533: real time    2.2780

 eigenvalue-minimisations  :   111
 total energy-change (2. order) :-0.4739323E-03  (-0.1538945E-05)
 number of electron     153.9999877 magnetization 
 augmentation part       74.2689350 magnetization 

 Broyden mixing:
  rms(total) = 0.28869E-03    rms(broyden)= 0.28867E-03
  rms(prec ) = 0.38151E-03
  weight for this iteration     100.00

 eigenvalues of (default mixing * dielectric matrix)
  average eigenvalue GAMMA=   2.3294
  7.5682  4.4851  2.6946  2.6946  1.7576  1.4597  1.1272  1.0198  0.9944  0.9944
  0.8279

 Free energy of the ion-electron system (eV)
  ---------------------------------------------------
  alpha Z        PSCENC =        20.46726801
  Ewald energy   TEWEN  =     23258.10841164
  -Hartree energ DENC   =    -37115.48640831
  -exchange      EXHF   =         0.00000000
  -V(xc)+E(xc)   XCENC  =      -164.41044371
  PAW double counting   =     12189.19534612   -11560.14649470
  entropy T*S    EENTRO =        -0.00000000
  eigenvalues    EBANDS =     -1179.73016081
  atomic energy  EATOM  =     14523.66059727
  Solvation  Ediel_sol  =         0.00000000
  ---------------------------------------------------
  free energy    TOTEN  =       -28.34188449 eV

  energy without entropy =      -28.34188449  energy(sigma->0) =      -28.34188449


--------------------------------------------------------------------------------------------------------




--------------------------------------- Iteration      1(  17)  ---------------------------------------


    POTLOK:  cpu time    0.3630: real time    0.3675
    SETDIJ:  cpu time    0.0019: real time    0.0019
    EDDIAG:  cpu time    0.4854: real time    0.5080
  RMM-DIIS:  cpu time    1.3679: real time    1.4308
    ORTHCH:  cpu time    0.0400: real time    0.0400
       DOS:  cpu time    0.0005: real time    0.0005
    CHARGE:  cpu time    0.2078: real time    0.2104
    MIXING:  cpu time    0.0211: real time    0.0211
    --------------------------------------------
      LOOP:  cpu time    2.4875: real time    2.5802

 eigenvalue-minimisations  :   113
 total energy-change (2. order) :-0.3246582E-03  (-0.1883132E-05)
 number of electron     153.9999877 magnetization 
 augmentation part       74.2699224 magnetization 

 Broyden mixing:
  rms(total) = 0.19627E-03    rms(broyden)= 0.19624E-03
  rms(prec ) = 0.23368E-03
  weight for this iteration     100.00

 eigenvalues of (default mixing * dielectric matrix)
  average eigenvalue GAMMA=   2.3363
  8.0085  4.9218  3.0408  2.5689  1.6721  1.6721  1.2807  1.0933  1.0933  0.9036
  0.9036  0.8772

 Free energy of the ion-electron system (eV)
  ---------------------------------------------------
  alpha Z        PSCENC =        20.46726801
  Ewald energy   TEWEN  =     23258.10841164
  -Hartree energ DENC   =    -37115.52336581
  -exchange      EXHF   =         0.00000000
  -V(xc)+E(xc)   XCENC  =      -164.41176728
  PAW double counting   =     12189.06930377   -11560.00647352
  entropy T*S    EENTRO =        -0.00000000
  eigenvalues    EBANDS =     -1179.70618323
  atomic energy  EATOM  =     14523.66059727
  Solvation  Ediel_sol  =         0.00000000
  ---------------------------------------------------
  free energy    TOTEN  =       -28.34220915 eV

  energy without entropy =      -28.34220915  energy(sigma->0) =      -28.34220915


--------------------------------------------------------------------------------------------------------




--------------------------------------- Iteration      1(  18)  ---------------------------------------


    POTLOK:  cpu time    0.3666: real time    0.3687
    SETDIJ:  cpu time    0.0017: real time    0.0017
    EDDIAG:  cpu time    0.4876: real time    0.4938
  RMM-DIIS:  cpu time    1.1377: real time    1.1442
    ORTHCH:  cpu time    0.0401: real time    0.0406
       DOS:  cpu time    0.0005: real time    0.0005
    CHARGE:  cpu time    0.2065: real time    0.2147
    MIXING:  cpu time    0.0215: real time    0.0220
    --------------------------------------------
      LOOP:  cpu time    2.2623: real time    2.2861

 eigenvalue-minimisations  :   111
 total energy-change (2. order) :-0.1212672E-03  (-0.6265125E-06)
 number of electron     153.9999877 magnetization 
 augmentation part       74.2692456 magnetization 

 Broyden mixing:
  rms(total) = 0.14048E-03    rms(broyden)= 0.14046E-03
  rms(prec ) = 0.16367E-03
  weight for this iteration     100.00

 eigenvalues of (default mixing * dielectric matrix)
  average eigenvalue GAMMA=   2.3795
  7.8664  5.7721  2.9651  2.9651  2.2899  1.5956  1.5956  1.1318  1.1318  0.9614
  0.9614  0.8946  0.8022

 Free energy of the ion-electron system (eV)
  ---------------------------------------------------
  alpha Z        PSCENC =        20.46726801
  Ewald energy   TEWEN  =     23258.10841164
  -Hartree energ DENC   =    -37115.56835049
  -exchange      EXHF   =         0.00000000
  -V(xc)+E(xc)   XCENC  =      -164.41091764
  PAW double counting   =     12189.11691209   -11560.05779975
  entropy T*S    EENTRO =        -0.00000000
  eigenvalues    EBANDS =     -1179.65845156
  atomic energy  EATOM  =     14523.66059727
  Solvation  Ediel_sol  =         0.00000000
  ---------------------------------------------------
  free energy    TOTEN  =       -28.34233042 eV

  energy without entropy =      -28.34233042  energy(sigma->0) =      -28.34233042


--------------------------------------------------------------------------------------------------------




--------------------------------------- Iteration      1(  19)  ---------------------------------------


    POTLOK:  cpu time    0.3643: real time    0.3666
    SETDIJ:  cpu time    0.0018: real time    0.0018
    EDDIAG:  cpu time    0.4824: real time    0.5091
  RMM-DIIS:  cpu time    1.1652: real time    1.1776
    ORTHCH:  cpu time    0.0404: real time    0.0414
       DOS:  cpu time    0.0005: real time    0.0005
    CHARGE:  cpu time    0.2939: real time    0.4086
    MIXING:  cpu time    0.0223: real time    0.0223
    --------------------------------------------
      LOOP:  cpu time    2.3708: real time    2.5278

 eigenvalue-minimisations  :   111
 total energy-change (2. order) :-0.8563752E-04  (-0.4778987E-06)
 number of electron     153.9999877 magnetization 
 augmentation part       74.2697060 magnetization 

 Broyden mixing:
  rms(total) = 0.68644E-04    rms(broyden)= 0.68625E-04
  rms(prec ) = 0.81534E-04
  weight for this iteration     100.00

 eigenvalues of (default mixing * dielectric matrix)
  average eigenvalue GAMMA=   2.3749
  8.2466  5.9275  3.5984  2.8162  2.4920  1.6400  1.6400  1.2098  1.0917  1.0917
  0.9690  0.9690  0.8148  0.7414

 Free energy of the ion-electron system (eV)
  ---------------------------------------------------
  alpha Z        PSCENC =        20.46726801
  Ewald energy   TEWEN  =     23258.10841164
  -Hartree energ DENC   =    -37115.55597341
  -exchange      EXHF   =         0.00000000
  -V(xc)+E(xc)   XCENC  =      -164.41174268
  PAW double counting   =     12189.05554528   -11559.99692215
  entropy T*S    EENTRO =        -0.00000000
  eigenvalues    EBANDS =     -1179.66960001
  atomic energy  EATOM  =     14523.66059727
  Solvation  Ediel_sol  =         0.00000000
  ---------------------------------------------------
  free energy    TOTEN  =       -28.34241606 eV

  energy without entropy =      -28.34241606  energy(sigma->0) =      -28.34241606


--------------------------------------------------------------------------------------------------------




--------------------------------------- Iteration      1(  20)  ---------------------------------------


    POTLOK:  cpu time    0.3646: real time    0.3677
    SETDIJ:  cpu time    0.0022: real time    0.0022
    EDDIAG:  cpu time    0.4906: real time    0.4955
  RMM-DIIS:  cpu time    0.7792: real time    0.7904
    ORTHCH:  cpu time    0.0407: real time    0.0413
       DOS:  cpu time    0.0005: real time    0.0005
    CHARGE:  cpu time    0.2081: real time    0.2092
    MIXING:  cpu time    0.0255: real time    0.0255
    --------------------------------------------
      LOOP:  cpu time    1.9113: real time    1.9322

 eigenvalue-minimisations  :    39
 total energy-change (2. order) :-0.3125391E-04  (-0.1152226E-06)
 number of electron     153.9999877 magnetization 
 augmentation part       74.2696816 magnetization 

 Broyden mixing:
  rms(total) = 0.47085E-04    rms(broyden)= 0.47084E-04
  rms(prec ) = 0.55152E-04
  weight for this iteration     100.00

 eigenvalues of (default mixing * dielectric matrix)
  average eigenvalue GAMMA=   2.4329
  8.2743  6.4213  4.0399  3.0182  2.5697  2.2377  1.5743  1.5743  1.0868  1.0868
  1.0722  0.9559  0.9559  0.8341  0.7921

 Free energy of the ion-electron system (eV)
  ---------------------------------------------------
  alpha Z        PSCENC =        20.46726801
  Ewald energy   TEWEN  =     23258.10841164
  -Hartree energ DENC   =    -37115.55747975
  -exchange      EXHF   =         0.00000000
  -V(xc)+E(xc)   XCENC  =      -164.41176949
  PAW double counting   =     12189.05695849   -11559.99950693
  entropy T*S    EENTRO =        -0.00000000
  eigenvalues    EBANDS =     -1179.66692655
  atomic energy  EATOM  =     14523.66059727
  Solvation  Ediel_sol  =         0.00000000
  ---------------------------------------------------
  free energy    TOTEN  =       -28.34244731 eV

  energy without entropy =      -28.34244731  energy(sigma->0) =      -28.34244731


--------------------------------------------------------------------------------------------------------




--------------------------------------- Iteration      1(  21)  ---------------------------------------


    POTLOK:  cpu time    0.3646: real time    0.3745
    SETDIJ:  cpu time    0.0020: real time    0.0020
    EDDIAG:  cpu time    0.4876: real time    0.4928
  RMM-DIIS:  cpu time    0.9278: real time    0.9535
    ORTHCH:  cpu time    0.0397: real time    0.0418
       DOS:  cpu time    0.0005: real time    0.0005
    CHARGE:  cpu time    0.2077: real time    0.2092
    MIXING:  cpu time    0.0259: real time    0.0259
    --------------------------------------------
      LOOP:  cpu time    2.0558: real time    2.1002

 eigenvalue-minimisations  :    73
 total energy-change (2. order) :-0.1682637E-04  (-0.7618051E-07)
 number of electron     153.9999877 magnetization 
 augmentation part       74.2695310 magnetization 

 Broyden mixing:
  rms(total) = 0.26814E-04    rms(broyden)= 0.26803E-04
  rms(prec ) = 0.30400E-04
  weight for this iteration     100.00

 eigenvalues of (default mixing * dielectric matrix)
  average eigenvalue GAMMA=   2.3680
  8.1539  6.7308  4.0504  3.1778  2.5376  2.3866  1.5942  1.5942  1.0791  1.0791
  1.0745  0.9605  0.9605  0.8664  0.8664  0.7761

 Free energy of the ion-electron system (eV)
  ---------------------------------------------------
  alpha Z        PSCENC =        20.46726801
  Ewald energy   TEWEN  =     23258.10841164
  -Hartree energ DENC   =    -37115.56703286
  -exchange      EXHF   =         0.00000000
  -V(xc)+E(xc)   XCENC  =      -164.41160667
  PAW double counting   =     12189.06853948   -11560.01134373
  entropy T*S    EENTRO =        -0.00000000
  eigenvalues    EBANDS =     -1179.65729726
  atomic energy  EATOM  =     14523.66059727
  Solvation  Ediel_sol  =         0.00000000
  ---------------------------------------------------
  free energy    TOTEN  =       -28.34246414 eV

  energy without entropy =      -28.34246414  energy(sigma->0) =      -28.34246414


--------------------------------------------------------------------------------------------------------




--------------------------------------- Iteration      1(  22)  ---------------------------------------


    POTLOK:  cpu time    0.3651: real time    0.3712
    SETDIJ:  cpu time    0.0439: real time    0.0439
    EDDIAG:  cpu time    0.7462: real time    0.7713
  RMM-DIIS:  cpu time    0.6897: real time    0.6985
    ORTHCH:  cpu time    0.0390: real time    0.0418
       DOS:  cpu time    0.0003: real time    0.0003
    --------------------------------------------
      LOOP:  cpu time    1.8841: real time    1.9270

 eigenvalue-minimisations  :    26
 total energy-change (2. order) :-0.3399204E-05  ( 0.0000000E+00)
 number of electron     153.9999877 magnetization 
 augmentation part       74.2695310 magnetization 

 Free energy of the ion-electron system (eV)
  ---------------------------------------------------
  alpha Z        PSCENC =        20.46726801
  Ewald energy   TEWEN  =     23258.10841164
  -Hartree energ DENC   =    -37115.56364136
  -exchange      EXHF   =         0.00000000
  -V(xc)+E(xc)   XCENC  =      -164.41168607
  PAW double counting   =     12189.07058469   -11560.01297841
  entropy T*S    EENTRO =        -0.00000000
  eigenvalues    EBANDS =     -1179.66102329
  atomic energy  EATOM  =     14523.66059727
  Solvation  Ediel_sol  =         0.00000000
  ---------------------------------------------------
  free energy    TOTEN  =       -28.34246754 eV

  energy without entropy =      -28.34246754  energy(sigma->0) =      -28.34246754


--------------------------------------------------------------------------------------------------------




 average (electrostatic) potential at core
  the test charge radii are     1.1249
  (the norm of the test charge is              1.0000)
       1 -48.0853       2 -48.1601       3 -48.0934       4 -48.1788       5 -48.2417
       6 -48.1498       7 -48.1505       8 -48.1085       9 -48.1313      10 -48.3027
      11 -48.2399      12 -48.2573      13 -48.2697      14 -48.2312
 
 
 
 E-fermi :  -4.2934     XC(G=0):  -0.3723     alpha+bet : -0.1199


 k-point     1 :       0.0000    0.0000    0.0000
  band No.  band energies     occupation 
      1      -9.4376      2.00000
      2      -9.3415      2.00000
      3      -9.2496      2.00000
      4      -9.1303      2.00000
      5      -9.1098      2.00000
      6      -9.0961      2.00000
      7      -9.0437      2.00000
      8      -9.0168      2.00000
      9      -8.9556      2.00000
     10      -8.9037      2.00000
     11      -8.8614      2.00000
     12      -8.8106      2.00000
     13      -8.7638      2.00000
     14      -8.7243      2.00000
     15      -8.6807      2.00000
     16      -8.6327      2.00000
     17      -8.5991      2.00000
     18      -8.5515      2.00000
     19      -8.4744      2.00000
     20      -8.4200      2.00000
     21      -8.4075      2.00000
     22      -8.3768      2.00000
     23      -8.3270      2.00000
     24      -8.2842      2.00000
     25      -8.2623      2.00000
     26      -8.2533      2.00000
     27      -8.1616      2.00000
     28      -8.1107      2.00000
     29      -8.0035      2.00000
     30      -7.8873      2.00000
     31      -7.8689      2.00000
     32      -7.8530      2.00000
     33      -7.7613      2.00000
     34      -7.7239      2.00000
     35      -7.6761      2.00000
     36      -7.6590      2.00000
     37      -7.6179      2.00000
     38      -7.5877      2.00000
     39      -7.5312      2.00000
     40      -7.4983      2.00000
     41      -7.4737      2.00000
     42      -7.4574      2.00000
     43      -7.4483      2.00000
     44      -7.4352      2.00000
     45      -7.4245      2.00000
     46      -7.4110      2.00000
     47      -7.3619      2.00000
     48      -7.3584      2.00000
     49      -7.3391      2.00000
     50      -7.3201      2.00000
     51      -7.2967      2.00000
     52      -7.2869      2.00000
     53      -7.2448      2.00000
     54      -7.2336      2.00000
     55      -7.1773      2.00000
     56      -7.1525      2.00000
     57      -7.1284      2.00000
     58      -7.1046      2.00000
     59      -7.0660      2.00000
     60      -7.0526      2.00000
     61      -7.0376      2.00000
     62      -7.0057      2.00000
     63      -6.9771      2.00000
     64      -6.9428      2.00000
     65      -6.9335      2.00000
     66      -6.9207      2.00000
     67      -6.8253      2.00000
     68      -6.7884      2.00000
     69      -6.7126      2.00000
     70      -6.6619      2.00000
     71      -6.6276      2.00000
     72      -6.4841      2.00000
     73      -6.3950      2.00000
     74      -4.9492      2.00000
     75      -4.8388      2.00000
     76      -4.7644      2.00000
     77      -4.5381      2.00000
     78      -3.1832      0.00000
     79      -3.1818      0.00000
     80      -2.8709      0.00000
     81      -2.8232      0.00000
     82      -2.4871      0.00000
     83      -2.4150      0.00000
     84      -2.1186      0.00000
     85      -1.5642      0.00000
     86      -1.3260      0.00000
     87      -1.1828      0.00000
     88      -1.0097      0.00000
     89      -0.9647      0.00000
     90      -0.9127      0.00000
     91      -0.7278      0.00000
     92      -0.7071      0.00000


--------------------------------------------------------------------------------------------------------


 soft charge-density along one line, spin component           1
         0         1         2         3         4         5         6         7         8         9
 total charge-density along one line
 
 pseudopotential strength for first ion, spin component:           1
-15.706   0.003  -0.004  -0.005   0.002   0.808  -0.001   0.001
  0.003 -15.711  -0.004   0.006   0.002  -0.001   0.809   0.001
 -0.004  -0.004 -15.692   0.002  -0.010   0.001   0.001   0.805
 -0.005   0.006   0.002 -15.690  -0.001   0.001  -0.001  -0.000
  0.002   0.002  -0.010  -0.001 -15.704  -0.000  -0.000   0.002
  0.808  -0.001   0.001   0.001  -0.000   0.329   0.000  -0.000
 -0.001   0.809   0.001  -0.001  -0.000   0.000   0.329  -0.000
  0.001   0.001   0.805  -0.000   0.002  -0.000  -0.000   0.329
  0.001  -0.001  -0.000   0.805   0.000  -0.000   0.000   0.000
 -0.000  -0.000   0.002   0.000   0.807   0.000   0.000  -0.000
 -0.002   0.002  -0.003   0.001  -0.004   0.000  -0.000   0.000
  0.000  -0.000   0.000   0.000   0.000  -0.000   0.000  -0.000
 -0.004   0.005  -0.017   0.000  -0.030   0.001  -0.001   0.003
  0.000   0.030   0.006  -0.004   0.000  -0.000  -0.006  -0.001
  0.030   0.000   0.003   0.005  -0.005  -0.006  -0.000  -0.001
  0.003  -0.003   0.011  -0.000   0.020  -0.001   0.001  -0.002
 -0.000  -0.020  -0.004   0.003  -0.000   0.000   0.004   0.001
 -0.020  -0.000  -0.002  -0.003   0.003   0.004   0.000   0.000
 total augmentation occupancy for first ion, spin component:           1
  1.969   0.003   0.002  -0.004   0.003  -0.012  -0.004   0.001   0.007  -0.004   0.005  -0.002  -0.002   0.006   0.002  -0.003
  0.003   1.964  -0.005   0.005  -0.004  -0.004  -0.007   0.007  -0.008   0.002  -0.008  -0.001   0.003  -0.005   0.005   0.003
  0.002  -0.005   1.982   0.001  -0.001   0.001   0.007  -0.031  -0.003   0.005   0.017  -0.001  -0.006  -0.001   0.003  -0.011
 -0.004   0.005   0.001   1.972  -0.007   0.007  -0.008  -0.003  -0.020   0.010  -0.027  -0.008   0.002   0.004  -0.000   0.000
  0.003  -0.004  -0.001  -0.007   1.973  -0.004   0.002   0.005   0.010  -0.016   0.004  -0.012  -0.008  -0.003   0.001  -0.019
 -0.012  -0.004   0.001   0.007  -0.004   0.045   0.005   0.007   0.006  -0.004  -0.022   0.015   0.007  -0.007  -0.036  -0.001
 -0.004  -0.007   0.007  -0.008   0.002   0.005   0.037   0.005  -0.005  -0.004   0.025  -0.015  -0.008  -0.026  -0.007   0.001
  0.001   0.007  -0.031  -0.003   0.005   0.007   0.005   0.021  -0.002   0.008  -0.033   0.020   0.017  -0.007  -0.006  -0.001
  0.007  -0.008  -0.003  -0.020   0.010   0.006  -0.005  -0.002   0.020   0.003   0.033  -0.006  -0.003   0.004  -0.005   0.000
 -0.004   0.002   0.005   0.010  -0.016  -0.004  -0.004   0.008   0.003   0.034  -0.022   0.025   0.025   0.003   0.007  -0.002
  0.005  -0.008   0.017  -0.027   0.004  -0.022   0.025  -0.033   0.033  -0.022   1.261  -0.211  -0.128  -0.022   0.025   0.015
 -0.002  -0.001  -0.001  -0.008  -0.012   0.015  -0.015   0.020  -0.006   0.025  -0.211   0.086   0.057   0.011  -0.013  -0.005
 -0.002   0.003  -0.006   0.002  -0.008   0.007  -0.008   0.017  -0.003   0.025  -0.128   0.057   0.041   0.005  -0.005  -0.003
  0.006  -0.005  -0.001   0.004  -0.003  -0.007  -0.026  -0.007   0.004   0.003  -0.022   0.011   0.005   0.024   0.010  -0.000
  0.002   0.005   0.003  -0.000   0.001  -0.036  -0.007  -0.006  -0.005   0.007   0.025  -0.013  -0.005   0.010   0.037   0.000
 -0.003   0.003  -0.011   0.000  -0.019  -0.001   0.001  -0.001   0.000  -0.002   0.015  -0.005  -0.003  -0.000   0.000   0.001
  0.000   0.021   0.004  -0.003   0.000   0.000   0.002   0.000  -0.000  -0.000   0.003  -0.001  -0.000  -0.001  -0.000   0.000
  0.021   0.000   0.002   0.003  -0.004   0.002   0.000   0.000   0.000  -0.000  -0.003   0.001   0.000  -0.000  -0.002  -0.000


------------------------ aborting loop because EDIFF is reached ----------------------------------------


    CHARGE:  cpu time    0.2075: real time    0.2101
    FORLOC:  cpu time    0.0521: real time    0.0570
    FORNL :  cpu time    0.6608: real time    0.6667
    STRESS:  cpu time    1.9901: real time    2.0396
    FORCOR:  cpu time    0.3785: real time    0.3883
    FORHAR:  cpu time    0.1551: real time    0.1560
    MIXING:  cpu time    0.0277: real time    0.0286
    OFIELD:  cpu time    0.0002: real time    0.0020

  FORCE on cell =-STRESS in cart. coord.  units (eV):
  Direction    XX          YY          ZZ          XY          YZ          ZX
  --------------------------------------------------------------------------------------
  Alpha Z    20.46727    20.46727    20.46727
  Ewald    9182.09232  8277.67262  5798.33592 -1410.70908  3399.66372  3104.03675
  Hartree 13552.57019 12787.40766 10775.58939 -1221.41871  2948.11510  2694.04215
  E(xc)    -811.39716  -811.69779  -813.06296    -0.51862     1.19516     1.11348
  Local  -23479.34302-21815.62753-17327.25222  2630.14322 -6340.56155 -5792.76726
  n-local  -951.78499  -951.65943  -953.07617    -0.55765     0.86609     0.77502
  augment   577.88315   579.33355   580.45971     0.62955    -2.07421    -1.60252
  Kinetic  1909.96987  1913.85123  1918.10912     2.02226    -6.41001    -5.33369
  Fock        0.00000     0.00000     0.00000     0.00000     0.00000     0.00000
  -------------------------------------------------------------------------------------
  Total       0.45763    -0.25242    -0.42994    -0.40903     0.79430     0.26393
  in kB       0.04312    -0.02378    -0.04051    -0.03854     0.07484     0.02487
  external pressure =       -0.01 kB  Pullay stress =        0.00 kB


 VOLUME and BASIS-vectors are now :
 -----------------------------------------------------------------------------
  energy-cutoff  :      400.00
  volume of cell :    17005.31
      direct lattice vectors                 reciprocal lattice vectors
    26.582564844  0.000000000  0.000000000     0.037618642  0.000000000  0.000000000
     0.000000000 26.243397995  0.000000000     0.000000000  0.038104822  0.000000000
     0.000000000  0.000000000 24.376294733     0.000000000  0.000000000  0.041023462

  length of vectors
    26.582564844 26.243397995 24.376294733     0.037618642  0.038104822  0.041023462


 FORCES acting on ions
    electron-ion (+dipol)            ewald-force                    non-local-force                 convergence-correction
 -----------------------------------------------------------------------------------------------
   0.191E+03 -.100E+04 -.273E+03   -.190E+03 0.999E+03 0.273E+03   -.747E+00 0.461E+01 0.749E+00   0.153E-05 0.186E-03 0.208E-04
   0.462E+03 0.759E+03 0.559E+03   -.460E+03 -.755E+03 -.557E+03   -.206E+01 -.343E+01 -.233E+01   -.425E-04 -.216E-03 -.132E-03
   -.740E+03 0.739E+03 -.120E+03   0.737E+03 -.736E+03 0.119E+03   0.299E+01 -.353E+01 0.922E+00   0.157E-03 -.152E-03 0.290E-04
   0.915E+03 -.765E+02 0.504E+03   -.911E+03 0.761E+02 -.502E+03   -.381E+01 0.377E+00 -.244E+01   -.200E-03 0.871E-04 -.193E-04
   -.770E+03 -.611E+02 0.695E+03   0.766E+03 0.619E+02 -.694E+03   0.375E+01 -.828E+00 -.126E+01   0.219E-03 -.833E-04 -.166E-03
   -.508E+03 -.580E+03 -.693E+03   0.507E+03 0.578E+03 0.690E+03   0.118E+01 0.188E+01 0.274E+01   0.154E-03 0.201E-04 0.941E-04
   -.959E+03 -.129E+03 -.369E+03   0.956E+03 0.128E+03 0.369E+03   0.384E+01 0.636E+00 0.510E+00   0.142E-03 0.906E-04 0.907E-04
   0.787E+03 -.636E+03 0.111E+03   -.785E+03 0.634E+03 -.110E+03   -.160E+01 0.183E+01 -.210E+00   -.138E-03 -.692E-04 0.515E-04
   -.137E+03 0.958E+03 0.270E+03   0.137E+03 -.956E+03 -.270E+03   0.400E+00 -.198E+01 -.433E+00   0.945E-04 0.218E-04 -.208E-03
   0.486E+03 -.912E+02 -.931E+03   -.485E+03 0.893E+02 0.927E+03   -.140E+01 0.199E+01 0.327E+01   -.180E-03 0.710E-04 0.208E-03
   -.522E+01 -.164E+03 0.963E+03   0.718E+01 0.164E+03 -.960E+03   -.193E+01 -.414E+00 -.267E+01   -.613E-04 -.139E-03 -.115E-03
   -.115E+03 0.494E+03 -.729E+03   0.113E+03 -.493E+03 0.729E+03   0.212E+01 -.105E+01 0.659E+00   0.283E-03 0.137E-03 0.776E-05
   0.701E+03 0.509E+03 -.389E+03   -.698E+03 -.507E+03 0.390E+03   -.236E+01 -.157E+01 -.962E+00   -.250E-03 0.792E-04 -.125E-03
   -.307E+03 -.718E+03 0.402E+03   0.307E+03 0.716E+03 -.403E+03   0.116E+00 0.192E+01 0.111E+01   0.659E-04 0.153E-04 0.211E-03
 -----------------------------------------------------------------------------------------------
   -.529E+00 -.507E+00 0.357E+00   0.227E-12 -.227E-12 0.000E+00   0.484E+00 0.453E+00 -.344E+00   0.244E-03 0.487E-04 -.532E-04
 
 
 POSITION                                       TOTAL-FORCE (eV/Angst)
 -----------------------------------------------------------------------------------
     15.92284     19.84465     15.70844        -0.166983      0.070362      0.064113
     14.62091     13.72563     12.19719        -0.047542     -0.061507     -0.089130
     19.55545     13.75292     14.76903         0.027543     -0.022855     -0.049301
     13.26722     16.15547     12.45148        -0.139560     -0.020329      0.001294
     18.65798     15.90385     13.15485        -0.014164     -0.052308      0.118998
     18.12657     18.30653     16.57349        -0.000519      0.005681      0.107083
     19.84979     16.39426     15.70363         0.076017     -0.036443     -0.054911
     14.25152     18.06690     14.16288         0.048937      0.017753     -0.065717
     17.05514     13.60125     13.47547        -0.041753     -0.012484     -0.068246
     15.57077     17.13313     16.43389        -0.115143      0.144416      0.059775
     16.05209     16.16007     12.24018         0.028555     -0.068251      0.074409
     17.35103     15.24072     15.72250         0.219577      0.024237      0.019122
     14.81931     15.18580     14.60574        -0.014401      0.058385     -0.057463
     17.05529     17.93640     14.06936         0.139435     -0.046655     -0.060026
 -----------------------------------------------------------------------------------
    total drift:                               -0.044804     -0.054541      0.013117


--------------------------------------------------------------------------------------------------------



  FREE ENERGIE OF THE ION-ELECTRON SYSTEM (eV)
  ---------------------------------------------------
  free  energy   TOTEN  =       -28.34246754 eV

  energy  without entropy=      -28.34246754  energy(sigma->0) =      -28.34246754
 


--------------------------------------------------------------------------------------------------------


    POTLOK:  cpu time    0.3633: real time    0.3694


--------------------------------------------------------------------------------------------------------




--------------------------------------------------------------------------------------------------------


    WAVPRE:  cpu time    0.0841: real time    0.0925
    FEWALD:  cpu time    0.0009: real time    0.0017

 real space projection operators:
  total allocation   :       2907.70 KBytes
  max/ min on nodes  :        198.28        163.69

    ORTHCH:  cpu time    0.3600: real time    0.4991
     LOOP+:  cpu time   65.2188: real time   68.5518


--------------------------------------- Iteration      2(   1)  ---------------------------------------


    POTLOK:  cpu time    0.3611: real time    0.3667
    SETDIJ:  cpu time    0.0017: real time    0.0017
     EDDAV:  cpu time    2.5499: real time    2.6940
       DOS:  cpu time    0.0006: real time    0.0006
    CHARGE:  cpu time    0.2069: real time    0.2110
    MIXING:  cpu time    0.0113: real time    0.0113
    --------------------------------------------
      LOOP:  cpu time    3.1317: real time    3.2854

 eigenvalue-minimisations  :   192
 total energy-change (2. order) :-0.8723057E-02  (-0.4692248E+00)
 number of electron     153.9999891 magnetization 
 augmentation part       74.2732817 magnetization 

 Broyden mixing:
  rms(total) = 0.57010E-02    rms(broyden)= 0.56893E-02
  rms(prec ) = 0.60466E-02
  weight for this iteration     100.00

 Free energy of the ion-electron system (eV)
  ---------------------------------------------------
  alpha Z        PSCENC =        20.46726801
  Ewald energy   TEWEN  =     23234.67039663
  -Hartree energ DENC   =    -37092.24133650
  -exchange      EXHF   =         0.00000000
  -V(xc)+E(xc)   XCENC  =      -164.45012300
  PAW double counting   =     12189.07088678   -11560.01261813
  entropy T*S    EENTRO =        -0.00000000
  eigenvalues    EBANDS =     -1179.51625825
  atomic energy  EATOM  =     14523.66059727
  Solvation  Ediel_sol  =         0.00000000
  ---------------------------------------------------
  free energy    TOTEN  =       -28.35118719 eV

  energy without entropy =      -28.35118719  energy(sigma->0) =      -28.35118719


--------------------------------------------------------------------------------------------------------




--------------------------------------- Iteration      2(   2)  ---------------------------------------


    POTLOK:  cpu time    0.3679: real time    0.3716
    SETDIJ:  cpu time    0.0019: real time    0.0019
    EDDIAG:  cpu time    0.5186: real time    0.5321
  RMM-DIIS:  cpu time    1.7226: real time    1.9874
    ORTHCH:  cpu time    0.0401: real time    0.0406
       DOS:  cpu time    0.0005: real time    0.0005
    CHARGE:  cpu time    0.1997: real time    0.2022
    MIXING:  cpu time    0.0121: real time    0.0121
    --------------------------------------------
      LOOP:  cpu time    2.8634: real time    3.1486

 eigenvalue-minimisations  :   184
[...]

  energy without entropy =      -28.42190890  energy(sigma->0) =      -28.42190890


--------------------------------------------------------------------------------------------------------




--------------------------------------- Iteration     67(   2)  ---------------------------------------


    POTLOK:  cpu time    0.3709: real time    0.3742
    SETDIJ:  cpu time    0.0017: real time    0.0017
    EDDIAG:  cpu time    0.5094: real time    0.7738
  RMM-DIIS:  cpu time    1.7342: real time    1.7710
    ORTHCH:  cpu time    0.0418: real time    0.0423
       DOS:  cpu time    0.0005: real time    0.0005
    CHARGE:  cpu time    0.2010: real time    0.2051
    MIXING:  cpu time    0.0117: real time    0.0117
    --------------------------------------------
      LOOP:  cpu time    2.8712: real time    3.1804

 eigenvalue-minimisations  :   184
 total energy-change (2. order) :-0.1243018E-03  (-0.1282953E-03)
 number of electron     153.9999964 magnetization 
 augmentation part       74.2867494 magnetization 

 Broyden mixing:
  rms(total) = 0.13611E-02    rms(broyden)= 0.13605E-02
  rms(prec ) = 0.14417E-02
  weight for this iteration     100.00

 eigenvalues of (default mixing * dielectric matrix)
  average eigenvalue GAMMA=   0.4724
  0.4724

 Free energy of the ion-electron system (eV)
  ---------------------------------------------------
  alpha Z        PSCENC =        20.46726801
  Ewald energy   TEWEN  =     23279.26004652
  -Hartree energ DENC   =    -37137.77750306
  -exchange      EXHF   =         0.00000000
  -V(xc)+E(xc)   XCENC  =      -164.48351064
  PAW double counting   =     12183.29957310   -11553.88782505
  entropy T*S    EENTRO =        -0.00000000
  eigenvalues    EBANDS =     -1178.96067936
  atomic energy  EATOM  =     14523.66059727
  Solvation  Ediel_sol  =         0.00000000
  ---------------------------------------------------
  free energy    TOTEN  =       -28.42203320 eV

  energy without entropy =      -28.42203320  energy(sigma->0) =      -28.42203320


--------------------------------------------------------------------------------------------------------




--------------------------------------- Iteration     67(   3)  ---------------------------------------


    POTLOK:  cpu time    0.3712: real time    0.3730
    SETDIJ:  cpu time    0.0020: real time    0.0020
    EDDIAG:  cpu time    0.4950: real time    0.5000
  RMM-DIIS:  cpu time    1.0676: real time    1.0798
    ORTHCH:  cpu time    0.0414: real time    0.0414
       DOS:  cpu time    0.0003: real time    0.0003
    --------------------------------------------
      LOOP:  cpu time    1.9774: real time    1.9964

 eigenvalue-minimisations  :    99
 total energy-change (2. order) : 0.1841685E-05  (-0.2259728E-05)
 number of electron     153.9999964 magnetization 
 augmentation part       74.2867494 magnetization 

 Free energy of the ion-electron system (eV)
  ---------------------------------------------------
  alpha Z        PSCENC =        20.46726801
  Ewald energy   TEWEN  =     23279.26004652
  -Hartree energ DENC   =    -37137.77676599
  -exchange      EXHF   =         0.00000000
  -V(xc)+E(xc)   XCENC  =      -164.48348628
  PAW double counting   =     12183.30795549   -11553.89657739
  entropy T*S    EENTRO =        -0.00000000
  eigenvalues    EBANDS =     -1178.96106899
  atomic energy  EATOM  =     14523.66059727
  Solvation  Ediel_sol  =         0.00000000
  ---------------------------------------------------
  free energy    TOTEN  =       -28.42203136 eV

  energy without entropy =      -28.42203136  energy(sigma->0) =      -28.42203136


--------------------------------------------------------------------------------------------------------




 average (electrostatic) potential at core
  the test charge radii are     1.1249
  (the norm of the test charge is              1.0000)
       1 -48.0441       2 -48.1288       3 -48.0497       4 -48.1379       5 -48.2868
       6 -48.1781       7 -48.1779       8 -48.1140       9 -48.1185      10 -48.2800
      11 -48.2649      12 -48.2607      13 -48.2674      14 -48.2498
 
 
 
 E-fermi :  -4.2420     XC(G=0):  -0.3641     alpha+bet : -0.1199


 k-point     1 :       0.0000    0.0000    0.0000
  band No.  band energies     occupation 
      1      -9.4033      2.00000
      2      -9.2883      2.00000
      3      -9.2430      2.00000
      4      -9.1227      2.00000
      5      -9.1188      2.00000
      6      -9.0747      2.00000
      7      -9.0553      2.00000
      8      -9.0464      2.00000
      9      -9.0217      2.00000
     10      -8.8935      2.00000
     11      -8.8520      2.00000
     12      -8.7910      2.00000
     13      -8.7756      2.00000
     14      -8.7100      2.00000
     15      -8.6736      2.00000
     16      -8.6501      2.00000
     17      -8.5567      2.00000
     18      -8.5187      2.00000
     19      -8.5026      2.00000
     20      -8.4038      2.00000
     21      -8.3716      2.00000
     22      -8.3515      2.00000
     23      -8.2887      2.00000
     24      -8.2575      2.00000
     25      -8.2317      2.00000
     26      -8.2215      2.00000
     27      -8.1779      2.00000
     28      -8.0916      2.00000
     29      -8.0900      2.00000
     30      -7.8789      2.00000
     31      -7.8659      2.00000
     32      -7.8229      2.00000
     33      -7.7633      2.00000
     34      -7.7208      2.00000
     35      -7.6747      2.00000
     36      -7.6645      2.00000
     37      -7.6307      2.00000
     38      -7.5637      2.00000
     39      -7.4995      2.00000
     40      -7.4767      2.00000
     41      -7.4653      2.00000
     42      -7.4385      2.00000
     43      -7.4355      2.00000
     44      -7.4307      2.00000
     45      -7.4253      2.00000
     46      -7.4076      2.00000
     47      -7.3969      2.00000
     48      -7.3522      2.00000
     49      -7.3246      2.00000
     50      -7.3218      2.00000
     51      -7.3065      2.00000
     52      -7.2597      2.00000
     53      -7.2458      2.00000
     54      -7.2101      2.00000
     55      -7.1560      2.00000
     56      -7.1406      2.00000
     57      -7.1150      2.00000
     58      -7.1095      2.00000
     59      -7.0854      2.00000
     60      -7.0653      2.00000
     61      -7.0387      2.00000
     62      -6.9946      2.00000
     63      -6.9743      2.00000
     64      -6.9434      2.00000
     65      -6.9299      2.00000
     66      -6.9168      2.00000
     67      -6.8080      2.00000
     68      -6.7982      2.00000
     69      -6.7238      2.00000
     70      -6.7103      2.00000
     71      -6.6978      2.00000
     72      -6.5035      2.00000
     73      -6.3813      2.00000
     74      -4.9631      2.00000
     75      -4.8593      2.00000
     76      -4.7095      2.00000
     77      -4.4899      2.00000
     78      -3.2334      0.00000
     79      -3.2286      0.00000
     80      -2.8216      0.00000
     81      -2.7680      0.00000
     82      -2.4690      0.00000
     83      -2.3941      0.00000
     84      -2.0966      0.00000
     85      -1.5423      0.00000
     86      -1.3933      0.00000
     87      -1.2778      0.00000
     88      -1.0298      0.00000
     89      -1.0049      0.00000
     90      -0.9027      0.00000
     91      -0.6515      0.00000
     92      -0.6433      0.00000


--------------------------------------------------------------------------------------------------------


 soft charge-density along one line, spin component           1
         0         1         2         3         4         5         6         7         8         9
 total charge-density along one line
 
 pseudopotential strength for first ion, spin component:           1
-15.684   0.004  -0.002  -0.004   0.002   0.803  -0.001   0.000
  0.004 -15.690  -0.003   0.004  -0.001  -0.001   0.804   0.001
 -0.002  -0.003 -15.671   0.001  -0.012   0.000   0.001   0.801
 -0.004   0.004   0.001 -15.668  -0.000   0.001  -0.001  -0.000
  0.002  -0.001  -0.012  -0.000 -15.682  -0.000   0.000   0.002
  0.803  -0.001   0.000   0.001  -0.000   0.330   0.000  -0.000
 -0.001   0.804   0.001  -0.001   0.000   0.000   0.330  -0.000
  0.000   0.001   0.801  -0.000   0.002  -0.000  -0.000   0.330
  0.001  -0.001  -0.000   0.801   0.000  -0.000   0.000   0.000
 -0.000   0.000   0.002   0.000   0.803   0.000  -0.000  -0.000
 -0.001   0.001  -0.002   0.001  -0.004   0.000  -0.000   0.000
  0.000  -0.000   0.000   0.000   0.000  -0.000   0.000  -0.000
 -0.004   0.005  -0.017   0.000  -0.030   0.001  -0.001   0.003
  0.000   0.030   0.006  -0.004  -0.000  -0.000  -0.006  -0.001
  0.031   0.000   0.002   0.005  -0.004  -0.006  -0.000  -0.000
  0.003  -0.003   0.011  -0.000   0.020  -0.000   0.001  -0.002
 -0.000  -0.020  -0.004   0.002   0.000   0.000   0.004   0.001
 -0.020  -0.000  -0.002  -0.003   0.003   0.004   0.000   0.000
 total augmentation occupancy for first ion, spin component:           1
  1.969   0.003   0.001  -0.004   0.005  -0.013  -0.004   0.000   0.007  -0.006   0.006  -0.002  -0.004   0.006   0.004  -0.002
  0.003   1.964  -0.005   0.004  -0.005  -0.004  -0.008   0.006  -0.004   0.005  -0.006  -0.001   0.005  -0.003   0.006   0.003
  0.001  -0.005   1.982  -0.001  -0.002   0.000   0.006  -0.031   0.001   0.008   0.009  -0.001  -0.005  -0.000   0.003  -0.011
 -0.004   0.004  -0.001   1.971  -0.006   0.007  -0.004   0.001  -0.019   0.008  -0.028  -0.008   0.001   0.002  -0.002   0.000
  0.005  -0.005  -0.002  -0.006   1.974  -0.006   0.005   0.008   0.008  -0.017   0.009  -0.011  -0.007  -0.005   0.002  -0.019
 -0.013  -0.004   0.000   0.007  -0.006   0.041   0.006   0.006   0.005  -0.005  -0.012   0.012   0.005  -0.007  -0.033  -0.000
 -0.004  -0.008   0.006  -0.004   0.005   0.006   0.036   0.006  -0.003  -0.003   0.017  -0.012  -0.006  -0.027  -0.007   0.000
  0.000   0.006  -0.031   0.001   0.008   0.006   0.006   0.020  -0.000   0.010  -0.023   0.018   0.016  -0.007  -0.006  -0.001
  0.007  -0.004   0.001  -0.019   0.008   0.005  -0.003  -0.000   0.018   0.002   0.033  -0.006  -0.003   0.003  -0.004   0.000
 -0.006   0.005   0.008   0.008  -0.017  -0.005  -0.003   0.010   0.002   0.033  -0.033   0.027   0.026   0.002   0.007  -0.002
  0.006  -0.006   0.009  -0.028   0.009  -0.012   0.017  -0.023   0.033  -0.033   1.252  -0.206  -0.126  -0.020   0.017   0.014
 -0.002  -0.001  -0.001  -0.008  -0.011   0.012  -0.012   0.018  -0.006   0.027  -0.206   0.084   0.056   0.010  -0.011  -0.005
 -0.004   0.005  -0.005   0.001  -0.007   0.005  -0.006   0.016  -0.003   0.026  -0.126   0.056   0.041   0.004  -0.004  -0.003
  0.006  -0.003  -0.000   0.002  -0.005  -0.007  -0.027  -0.007   0.003   0.002  -0.020   0.010   0.004   0.024   0.010  -0.000
  0.004   0.006   0.003  -0.002   0.002  -0.033  -0.007  -0.006  -0.004   0.007   0.017  -0.011  -0.004   0.010   0.033   0.000
 -0.002   0.003  -0.011   0.000  -0.019  -0.000   0.000  -0.001   0.000  -0.002   0.014  -0.005  -0.003  -0.000   0.000   0.001
  0.000   0.021   0.004  -0.003   0.000   0.000   0.002   0.000  -0.000  -0.000   0.002  -0.001  -0.000  -0.001  -0.000   0.000
  0.021   0.000   0.001   0.003  -0.003   0.002   0.000   0.000   0.000  -0.000  -0.002   0.001   0.000  -0.000  -0.002  -0.000


------------------------ aborting loop because EDIFF is reached ----------------------------------------


    CHARGE:  cpu time    0.2041: real time    0.2047
    FORLOC:  cpu time    0.0325: real time    0.0325
    FORNL :  cpu time    0.8232: real time    0.9530
    STRESS:  cpu time    1.9678: real time    2.1140
    FORCOR:  cpu time    0.3846: real time    0.3872
    FORHAR:  cpu time    0.1204: real time    0.1224
    MIXING:  cpu time    0.0136: real time    0.0136
    OFIELD:  cpu time    0.0001: real time    0.0001

  FORCE on cell =-STRESS in cart. coord.  units (eV):
  Direction    XX          YY          ZZ          XY          YZ          ZX
  --------------------------------------------------------------------------------------
  Alpha Z    20.46727    20.46727    20.46727
  Ewald    9240.64980  8223.87589  5814.72700 -1284.71994  3444.26442  2996.53334
  Hartree 13616.81907 12740.55513 10780.38568 -1119.57559  2999.42481  2609.04123
  E(xc)    -811.30039  -811.59299  -812.88996    -0.45172     1.16763     1.04343
  Local  -23602.89072-21714.74378-17347.23459  2403.70659 -6437.80686 -5601.23118
  n-local  -952.77204  -952.44747  -953.94556    -0.56267     0.81199     0.76126
  augment   578.12147   579.36111   580.23555     0.29710    -1.77554    -1.37592
  Kinetic  1910.09183  1913.80872  1917.55974     1.32498    -6.07200    -4.79741
  Fock        0.00000     0.00000     0.00000     0.00000     0.00000     0.00000
  -------------------------------------------------------------------------------------
  Total      -0.81370    -0.71612    -0.69486     0.01875     0.01446    -0.02525
  in kB      -0.07666    -0.06747    -0.06547     0.00177     0.00136    -0.00238
  external pressure =       -0.07 kB  Pullay stress =        0.00 kB


 VOLUME and BASIS-vectors are now :
 -----------------------------------------------------------------------------
  energy-cutoff  :      400.00
  volume of cell :    17005.31
      direct lattice vectors                 reciprocal lattice vectors
    26.582564844  0.000000000  0.000000000     0.037618642  0.000000000  0.000000000
     0.000000000 26.243397995  0.000000000     0.000000000  0.038104822  0.000000000
     0.000000000  0.000000000 24.376294733     0.000000000  0.000000000  0.041023462

  length of vectors
    26.582564844 26.243397995 24.376294733     0.037618642  0.038104822  0.041023462


 FORCES acting on ions
    electron-ion (+dipol)            ewald-force                    non-local-force                 convergence-correction
 -----------------------------------------------------------------------------------------------
   0.195E+03 -.100E+04 -.271E+03   -.195E+03 0.995E+03 0.270E+03   -.523E+00 0.459E+01 0.715E+00   0.314E-02 -.547E-02 -.356E-02
   0.446E+03 0.739E+03 0.584E+03   -.444E+03 -.736E+03 -.581E+03   -.199E+01 -.327E+01 -.259E+01   -.973E-02 -.491E-02 -.134E-01
   -.741E+03 0.737E+03 -.138E+03   0.738E+03 -.734E+03 0.137E+03   0.293E+01 -.342E+01 0.118E+01   0.181E-01 0.277E-01 0.812E-02
   0.939E+03 -.548E+02 0.452E+03   -.934E+03 0.546E+02 -.450E+03   -.417E+01 0.203E+00 -.201E+01   -.790E-02 -.895E-02 -.258E-01
   -.747E+03 -.123E+02 0.737E+03   0.744E+03 0.131E+02 -.735E+03   0.336E+01 -.817E+00 -.173E+01   -.166E-02 -.163E-01 -.385E-01
   -.460E+03 -.531E+03 -.785E+03   0.459E+03 0.529E+03 0.781E+03   0.945E+00 0.162E+01 0.356E+01   -.266E-01 -.142E-01 0.207E-01
   -.992E+03 -.173E+03 -.310E+03   0.988E+03 0.172E+03 0.310E+03   0.406E+01 0.859E+00 0.182E+00   -.237E-01 0.761E-01 -.667E-01
   0.716E+03 -.683E+03 0.212E+03   -.715E+03 0.681E+03 -.211E+03   -.119E+01 0.188E+01 -.644E+00   0.234E-01 -.126E-01 0.337E-01
   -.120E+03 0.972E+03 0.237E+03   0.120E+03 -.969E+03 -.237E+03   0.352E+00 -.218E+01 -.593E-01   -.181E-01 -.376E-02 0.878E-02
   0.544E+03 -.980E+02 -.893E+03   -.543E+03 0.963E+02 0.890E+03   -.162E+01 0.168E+01 0.307E+01   -.102E-01 0.874E-02 0.221E-01
   0.138E+02 -.168E+03 0.947E+03   -.119E+02 0.168E+03 -.944E+03   -.189E+01 -.396E+00 -.248E+01   0.482E-02 0.337E-01 0.545E-02
   -.128E+03 0.482E+03 -.732E+03   0.126E+03 -.481E+03 0.731E+03   0.206E+01 -.941E+00 0.620E+00   0.249E-01 -.180E-01 -.138E-02
   0.697E+03 0.522E+03 -.408E+03   -.694E+03 -.520E+03 0.409E+03   -.241E+01 -.177E+01 -.846E+00   0.324E-01 0.278E-02 0.880E-02
   -.364E+03 -.732E+03 0.369E+03   0.364E+03 0.730E+03 -.370E+03   0.297E+00 0.208E+01 0.110E+01   -.609E-02 -.723E-01 0.496E-01
 -----------------------------------------------------------------------------------------------
   -.213E+00 -.111E+00 -.643E-01   -.114E-12 0.114E-12 0.114E-12   0.213E+00 0.128E+00 0.632E-01   0.261E-02 -.754E-02 0.798E-02
 
 
 POSITION                                       TOTAL-FORCE (eV/Angst)
 -----------------------------------------------------------------------------------
     15.89207     19.83236     15.71908        -0.000893      0.002208      0.000172
     14.61589     13.73704     12.14607         0.001742      0.004057      0.001522
     19.56443     13.77233     14.76027         0.003009      0.002693      0.002482
     13.15929     16.09337     12.54585         0.000862     -0.002292     -0.001049
     18.64676     15.80573     13.08913        -0.000604     -0.005922      0.001492
     18.03779     18.20667     16.77491         0.000618      0.004085      0.002293
     19.85993     16.52502     15.53467         0.001170      0.001318     -0.007240
     14.44348     18.09305     13.95184        -0.000759      0.001316     -0.001553
     17.01129     13.57618     13.51424         0.000073     -0.001206     -0.005124
     15.44584     17.16931     16.38570         0.000606     -0.003650      0.002243
     16.01217     16.18942     12.34275        -0.004200     -0.003748     -0.001617
     17.39344     15.33869     15.71622        -0.001470      0.002229      0.004480
     14.80906     15.14714     14.62778        -0.000072     -0.001664      0.000304
     17.26448     17.92126     14.15962        -0.000081      0.000577      0.001596
 -----------------------------------------------------------------------------------
    total drift:                                0.002654      0.009151      0.006837


--------------------------------------------------------------------------------------------------------



  FREE ENERGIE OF THE ION-ELECTRON SYSTEM (eV)
  ---------------------------------------------------
  free  energy   TOTEN  =       -28.42203136 eV

  energy  without entropy=      -28.42203136  energy(sigma->0) =      -28.42203136
 
 d Force = 0.7780239E-04[ 0.132E-04, 0.142E-03]  d Energy = 0.1261647E-03-0.484E-04
 d Force =-0.2380028E+01[-0.238E+01,-0.238E+01]  d Ewald  =-0.2380030E+01 0.109E-05


--------------------------------------------------------------------------------------------------------


    POTLOK:  cpu time    0.3687: real time    0.3712


--------------------------------------------------------------------------------------------------------


 Conjugate gradient step on ions:
 trial-energy change:   -0.000126  1 .order   -0.000078   -0.000142   -0.000013
  (g-gl).g = 0.401E-04      g.g   = 0.467E-04  gl.gl    = 0.765E-04
 g(Force)  = 0.467E-04   g(Stress)= 0.000E+00 ortho     = 0.334E-06
 gamma     =   0.52395
 trial     =   3.03551
 opt step  =   3.12925  (harmonic =   3.34639) maximal distance =0.00280146
 next E    =   -28.422032   (d E  =  -0.00013)


--------------------------------------------------------------------------------------------------------


  
 reached required accuracy - stopping structural energy minimisation
     LOOP+:  cpu time   11.7999: real time   12.4520
    4ORBIT:  cpu time    0.0000: real time    0.0000

 total amount of memory used by VASP MPI-rank0    99937. kBytes
=======================================================================

   base      :      30000. kBytes
   nonlr-proj:        578. kBytes
   fftplans  :      22879. kBytes
   grid      :      32237. kBytes
   one-center:         15. kBytes
   wavefun   :      14228. kBytes
 
  
  
 General timing and accounting informations for this job:
 ========================================================
  
                  Total CPU time used (sec):     1206.207
                            User time (sec):     1168.184
                          System time (sec):       38.023
                         Elapsed time (sec):     1277.839
  
                   Maximum memory used (kb):      237004.
                   Average memory used (kb):           0.
  
                          Minor page faults:      2768225
                          Major page faults:            0
                 Voluntary context switches:         1420
