<?xml version="1.0" encoding="ISO-8859-1"?>
<modeling>
 <generator>
  <i name="program" type="string">vasp </i>
  <i name="version" type="string">5.4.4.18Apr17-6-g9f103f2a35  </i>
  <i name="subversion" type="string">(build Jun 19 2019 11:58:18) complex            parallel </i>
  <i name="platform" type="string">LinuxIFC </i>
  <i name="date" type="string">2022 07 17 </i>
  <i name="time" type="string">11:35:46 </i>
 </generator>
 <incar>
  <i type="string" name="SYSTEM"> BLACK</i>
  <i type="int" name="ISTART">     0</i>
  <i type="string" name="PREC">normal</i>
  <i type="string" name="ALGO"> Fast</i>
  <i type="int" name="ICHARG">     2</i>
  <i type="int" name="NELM">   200</i>
  <i type="int" name="NELMIN">     2</i>
  <i type="int" name="IBRION">     2</i>
  <i name="EDIFF">      0.00001000</i>
  <i name="EDIFFG">     -0.01000000</i>
  <i type="int" name="NSW">  1000</i>
  <i type="int" name="ISIF">     2</i>
  <i type="int" name="ISYM">     2</i>
  <i name="ENCUT">    400.00000000</i>
  <i type="string" name="LREAL"> auto</i>
  <i type="int" name="ISMEAR">     0</i>
  <i name="SIGMA">      0.05000000</i>
  <i type="int" name="NWRITE">     2</i>
  <i type="logical" name="LWAVE"> F  </i>
  <i type="logical" name="LCHARG"> F  </i>
  <v type="int" name="KPOINT_BSE">    -1     0     0     0</v>
  <i type="int" name="NELM">   200</i>
  <i type="string" name="GGA"> PE</i>
 </incar>
 <structure name="primitive_cell" >
  <crystal>
   <varray name="basis" >
    <v>      26.58256484       0.00000000       0.00000000 </v>
    <v>       0.00000000      26.24339799       0.00000000 </v>
    <v>       0.00000000       0.00000000      24.37629473 </v>
   </varray>
   <i name="volume">  17005.31343267 </i>
   <varray name="rec_basis" >
    <v>       0.03761864       0.00000000       0.00000000 </v>
    <v>       0.00000000       0.03810482       0.00000000 </v>
    <v>       0.00000000       0.00000000       0.04102346 </v>
   </varray>
  </crystal>
  <varray name="positions" >
   <v>      -0.40100441      -0.24382327      -0.35558547 </v>
   <v>      -0.35840307      -0.31653657      -0.42282630 </v>
   <v>      -0.31810320      -0.30243291      -0.32009819 </v>
   <v>      -0.41424874      -0.34714529      -0.32582483 </v>
   <v>      -0.46387708      -0.31156407      -0.41898972 </v>
   <v>      -0.34727789      -0.41925522      -0.35500859 </v>
   <v>      -0.44251756      -0.42134779      -0.40082209 </v>
   <v>      -0.39614213      -0.38422357      -0.49786545 </v>
   <v>      -0.25327789      -0.37529947      -0.35578264 </v>
   <v>      -0.29811230      -0.39398672      -0.46034258 </v>
   <v>       0.49909496      -0.38439877      -0.48919737 </v>
   <v>      -0.35840894      -0.48172684      -0.44718943 </v>
   <v>      -0.26435037      -0.47594733      -0.39412309 </v>
   <v>      -0.44998132      -0.47698722      -0.49962895 </v>
  </varray>
 </structure>
 <varray name="primitive_index" >
  <v type="int" >        1 </v>
  <v type="int" >       14 </v>
  <v type="int" >        6 </v>
  <v type="int" >       10 </v>
  <v type="int" >        8 </v>
  <v type="int" >       12 </v>
  <v type="int" >       13 </v>
  <v type="int" >       11 </v>
  <v type="int" >        7 </v>
  <v type="int" >        5 </v>
  <v type="int" >        4 </v>
  <v type="int" >        9 </v>
  <v type="int" >        3 </v>
  <v type="int" >        2 </v>
 </varray>
 <kpoints>
  <generation param="Gamma">
   <v type="int" name="divisions">       1        1        1 </v>
   <v name="usershift">      0.00000000       0.00000000       0.00000000 </v>
   <v name="genvec1">      1.00000000       0.00000000       0.00000000 </v>
   <v name="genvec2">      0.00000000       1.00000000       0.00000000 </v>
   <v name="genvec3">      0.00000000       0.00000000       1.00000000 </v>
   <v name="shift">      0.00000000       0.00000000       0.00000000 </v>
  </generation>
  <varray name="kpointlist" >
   <v>       0.00000000       0.00000000       0.00000000 </v>
  </varray>
  <varray name="weights" >
   <v>       1.00000000 </v>
  </varray>
 </kpoints>
 <parameters>
  <separator name="general" >
   <i type="string" name="SYSTEM">BLACK</i>
   <i type="logical" name="LCOMPAT"> F  </i>
  </separator>
  <separator name="electronic" >
   <i type="string" name="PREC">normal</i>
   <i name="ENMAX">    400.00000000</i>
   <i name="ENAUG">    412.49600000</i>
   <i name="EDIFF">      0.00001000</i>
   <i type="int" name="IALGO">    68</i>
   <i type="int" name="IWAVPR">    11</i>
   <i type="int" name="NBANDS">    92</i>
   <i name="NELECT">    154.00000000</i>
   <i type="int" name="TURBO">     0</i>
   <i type="int" name="IRESTART">     0</i>
   <i type="int" name="NREBOOT">     0</i>
   <i type="int" name="NMIN">     0</i>
   <i name="EREF">      0.00000000</i>
   <separator name="electronic smearing" >
    <i type="int" name="ISMEAR">     0</i>
    <i name="SIGMA">      0.05000000</i>
    <i name="KSPACING">      0.50000000</i>
    <i type="logical" name="KGAMMA"> T  </i>
   </separator>
   <separator name="electronic projectors" >
    <i type="logical" name="LREAL"> T  </i>
    <v name="ROPT">     -0.00050000</v>
    <i type="int" name="LMAXPAW">  -100</i>
    <i type="int" name="LMAXMIX">     2</i>
    <i type="logical" name="NLSPLINE"> F  </i>
   </separator>
   <separator name="electronic startup" >
    <i type="int" name="ISTART">     0</i>
    <i type="int" name="ICHARG">     2</i>
    <i type="int" name="INIWAV">     1</i>
   </separator>
   <separator name="electronic spin" >
    <i type="int" name="ISPIN">     1</i>
    <i type="logical" name="LNONCOLLINEAR"> F  </i>
    <v name="MAGMOM">      1.00000000      1.00000000      1.00000000      1.00000000      1.00000000      1.00000000      1.00000000      1.00000000      1.00000000      1.00000000      1.00000000      1.00000000      1.00000000      1.00000000</v>
    <i name="NUPDOWN">     -1.00000000</i>
    <i type="logical" name="LSORBIT"> F  </i>
    <v name="SAXIS">      0.00000000      0.00000000      1.00000000</v>
    <i type="logical" name="LSPIRAL"> F  </i>
    <v name="QSPIRAL">      0.00000000      0.00000000      0.00000000</v>
    <i type="logical" name="LZEROZ"> F  </i>
   </separator>
   <separator name="electronic exchange-correlation" >
    <i type="logical" name="LASPH"> F  </i>
    <i type="logical" name="LMETAGGA"> F  </i>
   </separator>
   <separator name="electronic convergence" >
    <i type="int" name="NELM">   200</i>
    <i type="int" name="NELMDL">    -5</i>
    <i type="int" name="NELMIN">     2</i>
    <i name="ENINI">    400.00000000</i>
    <separator name="electronic convergence detail" >
     <i type="logical" name="LDIAG"> T  </i>
     <i type="logical" name="LSUBROT"> F  </i>
     <i name="WEIMIN">      0.00100000</i>
     <i name="EBREAK">      0.00000003</i>
     <i name="DEPER">      0.30000000</i>
     <i type="int" name="NRMM">     4</i>
     <i name="TIME">      0.40000000</i>
    </separator>
   </separator>
   <separator name="electronic mixer" >
    <i name="AMIX">      0.40000000</i>
    <i name="BMIX">      1.00000000</i>
    <i name="AMIN">      0.10000000</i>
    <i name="AMIX_MAG">      1.60000000</i>
    <i name="BMIX_MAG">      1.00000000</i>
    <separator name="electronic mixer details" >
     <i type="int" name="IMIX">     4</i>
     <i type="logical" name="MIXFIRST"> F  </i>
     <i type="int" name="MAXMIX">   -45</i>
     <i name="WC">    100.00000000</i>
     <i type="int" name="INIMIX">     1</i>
     <i type="int" name="MIXPRE">     1</i>
     <i type="int" name="MREMOVE">     5</i>
    </separator>
   </separator>
   <separator name="electronic dipolcorrection" >
    <i type="logical" name="LDIPOL"> F  </i>
    <i type="logical" name="LMONO"> F  </i>
    <i type="int" name="IDIPOL">     0</i>
    <i name="EPSILON">      1.00000000</i>
    <v name="DIPOL">   -100.00000000   -100.00000000   -100.00000000</v>
    <i name="EFIELD">      0.00000000</i>
   </separator>
  </separator>
  <separator name="grids" >
   <i type="int" name="NGX">   140</i>
   <i type="int" name="NGY">   128</i>
   <i type="int" name="NGZ">   120</i>
   <i type="int" name="NGXF">   280</i>
   <i type="int" name="NGYF">   256</i>
   <i type="int" name="NGZF">   240</i>
   <i type="logical" name="ADDGRID"> F  </i>
  </separator>
  <separator name="ionic" >
   <i type="int" name="NSW">  1000</i>
   <i type="int" name="IBRION">     2</i>
   <i type="int" name="MDALGO">     0</i>
   <i type="int" name="ISIF">     2</i>
   <i name="PSTRESS">      0.00000000</i>
   <i name="EDIFFG">     -0.01000000</i>
   <i type="int" name="NFREE">     1</i>
   <i name="POTIM">      0.50000000</i>
   <i name="SMASS">     -3.00000000</i>
   <i name="SCALEE">      1.00000000</i>
  </separator>
  <separator name="ionic md" >
   <i name="TEBEG">      0.00010000</i>
   <i name="TEEND">      0.00010000</i>
   <i type="int" name="NBLOCK">     1</i>
   <i type="int" name="KBLOCK">  1000</i>
   <i type="int" name="NPACO">   256</i>
   <i name="APACO">     16.00000000</i>
  </separator>
  <separator name="symmetry" >
   <i type="int" name="ISYM">     2</i>
   <i name="SYMPREC">      0.00001000</i>
  </separator>
  <separator name="dos" >
   <i type="int" name="LORBIT">     0</i>
   <v name="RWIGS">     -1.00000000</v>
   <i type="int" name="NEDOS">   301</i>
   <i name="EMIN">     10.00000000</i>
   <i name="EMAX">    -10.00000000</i>
   <i name="EFERMI">      0.00000000</i>
  </separator>
  <separator name="writing" >
   <i type="int" name="NWRITE">     2</i>
   <i type="logical" name="LWAVE"> F  </i>
   <i type="logical" name="LDOWNSAMPLE"> F  </i>
   <i type="logical" name="LCHARG"> F  </i>
   <i type="logical" name="LPARD"> F  </i>
   <i type="logical" name="LVTOT"> F  </i>
   <i type="logical" name="LVHAR"> F  </i>
   <i type="logical" name="LELF"> F  </i>
   <i type="logical" name="LOPTICS"> F  </i>
   <v name="STM">      0.00000000      0.00000000      0.00000000      0.00000000      0.00000000      0.00000000      0.00000000</v>
  </separator>
  <separator name="performance" >
   <i type="int" name="NPAR">     2</i>
   <i type="int" name="NSIM">     4</i>
   <i type="int" name="NBLK">    -1</i>
   <i type="logical" name="LPLANE"> T  </i>
   <i type="logical" name="LSCALAPACK"> T  </i>
   <i type="logical" name="LSCAAWARE"> F  </i>
   <i type="logical" name="LSCALU"> F  </i>
   <i type="logical" name="LASYNC"> F  </i>
   <i type="logical" name="LORBITALREAL"> F  </i>
  </separator>
  <separator name="miscellaneous" >
   <i type="int" name="IDIOT">     3</i>
   <i type="int" name="ISPECIAL">     0</i>
   <i type="logical" name="LMUSIC"> F  </i>
   <v name="POMASS">    107.86800000</v>
   <v name="DARWINR">      0.00000000</v>
   <v name="DARWINV">      1.00000000</v>
   <i type="logical" name="LCORR"> T  </i>
  </separator>
  <i type="logical" name="GGA_COMPAT"> T  </i>
  <i type="logical" name="LBERRY"> F  </i>
  <i type="int" name="ICORELEVEL">     0</i>
  <i type="logical" name="LDAU"> F  </i>
  <i type="int" name="I_CONSTRAINED_M">     0</i>
  <separator name="electronic exchange-correlation" >
   <i type="string" name="GGA">PE</i>
   <i type="int" name="VOSKOWN">     0</i>
   <i type="logical" name="LHFCALC"> F  </i>
   <i type="string" name="PRECFOCK"></i>
   <i type="logical" name="LSYMGRAD"> F  </i>
   <i type="logical" name="LHFONE"> F  </i>
   <i type="logical" name="LRHFCALC"> F  </i>
   <i type="logical" name="LTHOMAS"> F  </i>
   <i type="logical" name="LMODELHF"> F  </i>
   <i name="ENCUT4O">     -1.00000000</i>
   <i type="int" name="EXXOEP">     0</i>
   <i type="int" name="FOURORBIT">     0</i>
   <i name="AEXX">      0.00000000</i>
   <i name="HFALPHA">      0.00000000</i>
   <i name="MCALPHA">      0.00000000</i>
   <i name="ALDAX">      1.00000000</i>
   <i name="AGGAX">      1.00000000</i>
   <i name="ALDAC">      1.00000000</i>
   <i name="AGGAC">      1.00000000</i>
   <i type="int" name="NKREDX">     1</i>
   <i type="int" name="NKREDY">     1</i>
   <i type="int" name="NKREDZ">     1</i>
   <i type="logical" name="SHIFTRED"> F  </i>
   <i type="logical" name="ODDONLY"> F  </i>
   <i type="logical" name="EVENONLY"> F  </i>
   <i type="int" name="LMAXFOCK">     0</i>
   <i type="int" name="NMAXFOCKAE">     0</i>
   <i type="logical" name="LFOCKAEDFT"> F  </i>
   <i name="HFSCREEN">      0.00000000</i>
   <i name="HFSCREENC">      0.00000000</i>
   <i type="int" name="NBANDSGWLOW">     0</i>
  </separator>
  <separator name="vdW DFT" >
   <i type="logical" name="LUSE_VDW"> F  </i>
   <i name="Zab_VDW">     -0.84910000</i>
   <i name="PARAM1">      0.12340000</i>
   <i name="PARAM2">      1.00000000</i>
   <i name="PARAM3">      0.00000000</i>
  </separator>
  <separator name="model GW" >
   <i type="int" name="MODEL_GW">     0</i>
   <i name="MODEL_EPS0">    728.79914711</i>
   <i name="MODEL_ALPHA">      1.00000000</i>
  </separator>
  <separator name="linear response parameters" >
   <i type="logical" name="LEPSILON"> F  </i>
   <i type="logical" name="LRPA"> F  </i>
   <i type="logical" name="LNABLA"> F  </i>
   <i type="logical" name="LVEL"> F  </i>
   <i type="int" name="KINTER">     0</i>
   <i name="CSHIFT">      0.10000000</i>
   <i name="OMEGAMAX">     -1.00000000</i>
   <i name="DEG_THRESHOLD">      0.00200000</i>
   <i name="RTIME">     -0.10000000</i>
   <i name="WPLASMAI">      0.00000000</i>
   <v name="DFIELD">      0.00000000      0.00000000      0.00000000</v>
   <v name="WPLASMA">      0.00000000      0.00000000      0.00000000      0.00000000      0.00000000      0.00000000      0.00000000      0.00000000      0.00000000</v>
  </separator>
  <separator name="orbital magnetization" >
   <i type="logical" name="NUCIND"> F  </i>
   <v name="MAGPOS">      0.00000000      0.00000000      0.00000000</v>
   <i type="logical" name="LNICSALL"> T  </i>
   <i type="logical" name="ORBITALMAG"> F  </i>
   <i type="logical" name="LMAGBLOCH"> F  </i>
   <i type="logical" name="LCHIMAG"> F  </i>
   <i type="logical" name="LGAUGE"> T  </i>
   <i type="int" name="MAGATOM">     0</i>
   <v name="MAGDIPOL">      0.00000000      0.00000000      0.00000000</v>
   <v name="AVECCONST">      0.00000000      0.00000000      0.00000000</v>
  </separator>
  <separator name="response functions" >
   <i type="logical" name="LADDER"> F  </i>
   <i type="logical" name="LRPAFORCE"> F  </i>
   <i type="logical" name="LFXC"> F  </i>
   <i type="logical" name="LHARTREE"> T  </i>
   <i type="int" name="IBSE">     0</i>
   <v type="int" name="KPOINT">    -1     0     0     0</v>
   <i type="logical" name="LTCTE"> F  </i>
   <i type="logical" name="LTETE"> F  </i>
   <i type="logical" name="LTRIPLET"> F  </i>
   <i type="logical" name="LFXCEPS"> F  </i>
   <i type="logical" name="LFXHEG"> F  </i>
   <i type="int" name="NATURALO">     2</i>
   <i type="logical" name="L2ORDER"> F  </i>
   <i type="logical" name="LMP2LT"> F  </i>
   <i type="logical" name="LUSEW"> F  </i>
   <i name="ENCUTGW">     -2.00000000</i>
   <i name="ENCUTGWSOFT">     -2.00000000</i>
   <i name="ENCUTLF">     -1.00000000</i>
   <i type="int" name="LMAXMP2">    -1</i>
   <i name="SCISSOR">      0.00000000</i>
   <i type="int" name="NOMEGA">     0</i>
   <i type="int" name="NOMEGAR">     0</i>
   <i type="int" name="NBANDSGW">    -1</i>
   <i type="int" name="NBANDSO">    -1</i>
   <i type="int" name="NBANDSV">    -1</i>
   <i type="int" name="NELM">   200</i>
   <i type="int" name="NELMHF">     1</i>
   <i type="int" name="DIM">     3</i>
   <i type="int" name="ANTIRES">     0</i>
   <i name="OMEGAMAX">    -30.00000000</i>
   <i name="OMEGAMIN">    -30.00000000</i>
   <i name="OMEGATL">   -200.00000000</i>
   <i type="int" name="OMEGAGRID">   140</i>
   <i name="CSHIFT">     -0.10000000</i>
   <i type="logical" name="SELFENERGY"> F  </i>
   <i type="logical" name="LSPECTRAL"> F  </i>
   <i type="logical" name="LSPECTRALGW"> F  </i>
   <i type="logical" name="LSINGLES"> F  </i>
   <i type="logical" name="LFERMIGW"> F  </i>
   <i type="logical" name="ODDONLYGW"> F  </i>
   <i type="logical" name="EVENONLYGW"> F  </i>
   <i type="int" name="NKREDLFX">     1</i>
   <i type="int" name="NKREDLFY">     1</i>
   <i type="int" name="NKREDLFZ">     1</i>
   <i type="int" name="MAXMEM">  2800</i>
   <i type="int" name="TELESCOPE">     0</i>
   <i type="int" name="TAUPAR">     1</i>
   <i type="int" name="OMEGAPAR">    -1</i>
   <i name="LAMBDA">      1.00000000</i>
  </separator>
  <separator name="External order field" >
   <i name="OFIELD_KAPPA">      0.00000000</i>
   <v name="OFIELD_K">      0.00000000      0.00000000      0.00000000</v>
   <i name="OFIELD_Q6_NEAR">      0.00000000</i>
   <i name="OFIELD_Q6_FAR">      0.00000000</i>
   <i name="OFIELD_A">      0.00000000</i>
  </separator>
 </parameters>
 <atominfo>
  <atoms>      14 </atoms>
  <types>       1 </types>
  <array name="atoms" >
   <dimension dim="1">ion</dimension>
   <field type="string">element</field>
   <field type="int">atomtype</field>
   <set>
    <rc><c>Ag</c><c>   1</c></rc>
    <rc><c>Ag</c><c>   1</c></rc>
    <rc><c>Ag</c><c>   1</c></rc>
    <rc><c>Ag</c><c>   1</c></rc>
    <rc><c>Ag</c><c>   1</c></rc>
    <rc><c>Ag</c><c>   1</c></rc>
    <rc><c>Ag</c><c>   1</c></rc>
    <rc><c>Ag</c><c>   1</c></rc>
    <rc><c>Ag</c><c>   1</c></rc>
    <rc><c>Ag</c><c>   1</c></rc>
    <rc><c>Ag</c><c>   1</c></rc>
    <rc><c>Ag</c><c>   1</c></rc>
    <rc><c>Ag</c><c>   1</c></rc>
    <rc><c>Ag</c><c>   1</c></rc>
   </set>
  </array>
  <array name="atomtypes" >
   <dimension dim="1">type</dimension>
   <field type="int">atomspertype</field>
   <field type="string">element</field>
   <field>mass</field>
   <field>valence</field>
   <field type="string">pseudopotential</field>
   <set>
    <rc><c>  14</c><c>Ag</c><c>    107.86800000</c><c>     11.00000000</c><c> PAW_PBE Ag 06Sep2000                   </c></rc>
   </set>
  </array>
 </atominfo>
 <structure name="initialpos" >
  <crystal>
   <varray name="basis" >
    <v>      26.58256484       0.00000000       0.00000000 </v>
    <v>       0.00000000      26.24339799       0.00000000 </v>
    <v>       0.00000000       0.00000000      24.37629473 </v>
   </varray>
   <i name="volume">  17005.31343267 </i>
   <varray name="rec_basis" >
    <v>       0.03761864       0.00000000       0.00000000 </v>
    <v>       0.00000000       0.03810482       0.00000000 </v>
    <v>       0.00000000       0.00000000       0.04102346 </v>
   </varray>
  </crystal>
  <varray name="positions" >
   <v>       0.59899559       0.75617673       0.64441453 </v>
   <v>       0.55001868       0.52301278       0.50037105 </v>
   <v>       0.73564963       0.52405267       0.60587691 </v>
   <v>       0.49909496       0.61560123       0.51080263 </v>
   <v>       0.70188770       0.60601328       0.53965742 </v>
   <v>       0.68189680       0.69756709       0.67990181 </v>
   <v>       0.74672211       0.62470053       0.64421736 </v>
   <v>       0.53612292       0.68843593       0.58101028 </v>
   <v>       0.64159106       0.51827316       0.55281057 </v>
   <v>       0.58575126       0.65285471       0.67417517 </v>
   <v>       0.60385787       0.61577643       0.50213455 </v>
   <v>       0.65272211       0.58074478       0.64499141 </v>
   <v>       0.55748244       0.57865221       0.59917791 </v>
   <v>       0.64159693       0.68346343       0.57717370 </v>
  </varray>
 </structure>
 <calculation>
  <scstep>
   <time name="dav">    2.84    2.97</time>
   <time name="total">    3.22    3.36</time>
   <energy>
    <i name="alphaZ">     20.46726801 </i>
    <i name="ewald">  23258.10841164 </i>
    <i name="hartreedc"> -37104.81103348 </i>
    <i name="XCdc">   -161.42572731 </i>
    <i name="pawpsdc">  12189.36871779 </i>
    <i name="pawaedc"> -11539.77929811 </i>
    <i name="eentropy">     -0.05663072 </i>
    <i name="bandstr">     95.32159474 </i>
    <i name="atom">  14523.66059727 </i>
    <i name="e_fr_energy">   1280.85389981 </i>
    <i name="e_wo_entrp">   1280.91053054 </i>
    <i name="e_0_energy">   1280.88221517 </i>
   </energy>
  </scstep>
  <scstep>
   <time name="dav">    4.64    4.81</time>
   <time name="total">    4.64    4.81</time>
   <energy>
    <i name="e_fr_energy">    734.70553557 </i>
    <i name="e_wo_entrp">    734.78971785 </i>
    <i name="e_0_energy">    734.74762671 </i>
   </energy>
  </scstep>
  <scstep>
   <time name="dav">    3.72    4.01</time>
   <time name="total">    3.72    4.02</time>
   <energy>
    <i name="e_fr_energy">    179.85694873 </i>
    <i name="e_wo_entrp">    179.89688285 </i>
    <i name="e_0_energy">    179.87691579 </i>
   </energy>
  </scstep>
  <scstep>
   <time name="dav">    2.95    2.98</time>
   <time name="total">    2.95    2.98</time>
   <energy>
    <i name="e_fr_energy">     -8.17518163 </i>
    <i name="e_wo_entrp">     -8.17518163 </i>
    <i name="e_0_energy">     -8.17518163 </i>
   </energy>
  </scstep>
  <scstep>
   <time name="dav">    2.98    3.12</time>
   <time name="total">    3.20    3.36</time>
   <energy>
    <i name="e_fr_energy">    -29.65156467 </i>
    <i name="e_wo_entrp">    -29.65156467 </i>
    <i name="e_0_energy">    -29.65156467 </i>
   </energy>
  </scstep>
  <scstep>
   <time name="diag">    0.48    0.49</time>
   <time name="diis">    1.73    1.91</time>
   <time name="orth">    0.04    0.05</time>
   <time name="total">    2.84    3.15</time>
   <energy>
    <i name="e_fr_energy">    -28.49756121 </i>
    <i name="e_wo_entrp">    -28.49756121 </i>
    <i name="e_0_energy">    -28.49756121 </i>
   </energy>
  </scstep>
  <scstep>
   <time name="diag">    0.53    0.53</time>
   <time name="diis">    1.73    1.75</time>
   <time name="orth">    0.04    0.04</time>
   <time name="total">    2.87    2.90</time>
   <energy>
    <i name="e_fr_energy">    -28.35904175 </i>
    <i name="e_wo_entrp">    -28.35904175 </i>
    <i name="e_0_energy">    -28.35904175 </i>
   </energy>
  </scstep>
  <scstep>
   <time name="diag">    0.48    0.49</time>
   <time name="diis">    1.82    2.06</time>
   <time name="orth">    0.04    0.04</time>
   <time name="total">    2.92    3.18</time>
   <energy>
    <i name="e_fr_energy">    -28.33586443 </i>
    <i name="e_wo_entrp">    -28.33586443 </i>
    <i name="e_0_energy">    -28.33586443 </i>
   </energy>
  </scstep>
  <scstep>
   <time name="diag">    0.48    0.49</time>
   <time name="diis">    1.72    1.75</time>
   <time name="orth">    0.04    0.04</time>
   <time name="total">    2.82    2.86</time>
   <energy>
    <i name="e_fr_energy">    -28.33225164 </i>
    <i name="e_wo_entrp">    -28.33225164 </i>
    <i name="e_0_energy">    -28.33225164 </i>
   </energy>
  </scstep>
  <scstep>
   <time name="diag">    0.52    0.64</time>
   <time name="diis">    1.87    1.89</time>
   <time name="orth">    0.04    0.04</time>
   <time name="total">    3.01    3.16</time>
   <energy>
    <i name="e_fr_energy">    -28.33203083 </i>
    <i name="e_wo_entrp">    -28.33203083 </i>
    <i name="e_0_energy">    -28.33203083 </i>
   </energy>
  </scstep>
  <scstep>
   <time name="diag">    0.49    0.49</time>
   <time name="diis">    1.72    2.34</time>
   <time name="orth">    0.08    0.14</time>
   <time name="total">    2.93    3.63</time>
   <energy>
    <i name="e_fr_energy">    -28.33419213 </i>
    <i name="e_wo_entrp">    -28.33419213 </i>
    <i name="e_0_energy">    -28.33419213 </i>
   </energy>
  </scstep>
  <scstep>
   <time name="diag">    0.50    0.50</time>
   <time name="diis">    1.75    1.79</time>
   <time name="orth">    0.04    0.04</time>
   <time name="total">    2.88    2.93</time>
   <energy>
    <i name="e_fr_energy">    -28.33675539 </i>
    <i name="e_wo_entrp">    -28.33675539 </i>
    <i name="e_0_energy">    -28.33675539 </i>
   </energy>
  </scstep>
  <scstep>
   <time name="diag">    0.49    0.49</time>
   <time name="diis">    1.94    2.08</time>
   <time name="orth">    0.04    0.04</time>
   <time name="total">    3.05    3.21</time>
   <energy>
    <i name="e_fr_energy">    -28.33873692 </i>
    <i name="e_wo_entrp">    -28.33873692 </i>
    <i name="e_0_energy">    -28.33873692 </i>
   </energy>
  </scstep>
  <scstep>
   <time name="diag">    0.49    0.49</time>
   <time name="diis">    1.18    1.19</time>
   <time name="orth">    0.04    0.04</time>
   <time name="total">    2.30    2.32</time>
   <energy>
    <i name="e_fr_energy">    -28.34029714 </i>
    <i name="e_wo_entrp">    -28.34029714 </i>
    <i name="e_0_energy">    -28.34029714 </i>
   </energy>
  </scstep>
  <scstep>
   <time name="diag">    0.49    0.52</time>
   <time name="diis">    1.23    1.37</time>
   <time name="orth">    0.04    0.04</time>
   <time name="total">    2.36    2.53</time>
   <energy>
    <i name="e_fr_energy">    -28.34141056 </i>
    <i name="e_wo_entrp">    -28.34141056 </i>
    <i name="e_0_energy">    -28.34141056 </i>
   </energy>
  </scstep>
  <scstep>
   <time name="diag">    0.49    0.50</time>
   <time name="diis">    1.13    1.14</time>
   <time name="orth">    0.04    0.04</time>
   <time name="total">    2.25    2.28</time>
   <energy>
    <i name="e_fr_energy">    -28.34188449 </i>
    <i name="e_wo_entrp">    -28.34188449 </i>
    <i name="e_0_energy">    -28.34188449 </i>
   </energy>
  </scstep>
  <scstep>
   <time name="diag">    0.49    0.51</time>
   <time name="diis">    1.37    1.43</time>
   <time name="orth">    0.04    0.04</time>
   <time name="total">    2.49    2.58</time>
   <energy>
    <i name="e_fr_energy">    -28.34220915 </i>
    <i name="e_wo_entrp">    -28.34220915 </i>
    <i name="e_0_energy">    -28.34220915 </i>
   </energy>
  </scstep>
  <scstep>
   <time name="diag">    0.49    0.49</time>
   <time name="diis">    1.14    1.14</time>
   <time name="orth">    0.04    0.04</time>
   <time name="total">    2.26    2.29</time>
   <energy>
    <i name="e_fr_energy">    -28.34233042 </i>
    <i name="e_wo_entrp">    -28.34233042 </i>
    <i name="e_0_energy">    -28.34233042 </i>
   </energy>
  </scstep>
  <scstep>
   <time name="diag">    0.48    0.51</time>
   <time name="diis">    1.17    1.18</time>
   <time name="orth">    0.04    0.04</time>
   <time name="total">    2.37    2.53</time>
   <energy>
    <i name="e_fr_energy">    -28.34241606 </i>
    <i name="e_wo_entrp">    -28.34241606 </i>
    <i name="e_0_energy">    -28.34241606 </i>
   </energy>
  </scstep>
  <scstep>
   <time name="diag">    0.49    0.50</time>
   <time name="diis">    0.78    0.79</time>
   <time name="orth">    0.04    0.04</time>
   <time name="total">    1.91    1.93</time>
   <energy>
    <i name="e_fr_energy">    -28.34244731 </i>
    <i name="e_wo_entrp">    -28.34244731 </i>
    <i name="e_0_energy">    -28.34244731 </i>
   </energy>
  </scstep>
  <scstep>
   <time name="diag">    0.49    0.49</time>
   <time name="diis">    0.93    0.95</time>
   <time name="orth">    0.04    0.04</time>
   <time name="total">    2.06    2.10</time>
   <energy>
    <i name="e_fr_energy">    -28.34246414 </i>
    <i name="e_wo_entrp">    -28.34246414 </i>
    <i name="e_0_energy">    -28.34246414 </i>
   </energy>
  </scstep>
  <scstep>
   <time name="diag">    0.75    0.77</time>
   <time name="diis">    0.69    0.70</time>
   <time name="orth">    0.04    0.04</time>
   <time name="total">    1.88    1.93</time>
   <energy>
    <i name="alphaZ">     20.46726801 </i>
    <i name="ewald">  23258.10841164 </i>
    <i name="hartreedc"> -37115.56364136 </i>
    <i name="XCdc">   -164.41168607 </i>
    <i name="pawpsdc">  12189.07058469 </i>
    <i name="pawaedc"> -11560.01297841 </i>
    <i name="eentropy">     -0.00000000 </i>
    <i name="bandstr">  -1179.66102329 </i>
    <i name="atom">  14523.66059727 </i>
    <i name="e_fr_energy">    -28.34246754 </i>
    <i name="e_wo_entrp">    -28.34246754 </i>
    <i name="e_0_energy">    -28.34246754 </i>
   </energy>
  </scstep>
  <structure>
   <crystal>
    <varray name="basis" >
     <v>      26.58256484       0.00000000       0.00000000 </v>
     <v>       0.00000000      26.24339799       0.00000000 </v>
     <v>       0.00000000       0.00000000      24.37629473 </v>
    </varray>
    <i name="volume">  17005.31343267 </i>
    <varray name="rec_basis" >
     <v>       0.03761864       0.00000000       0.00000000 </v>
     <v>       0.00000000       0.03810482       0.00000000 </v>
     <v>       0.00000000       0.00000000       0.04102346 </v>
    </varray>
   </crystal>
   <varray name="positions" >
    <v>       0.59899559       0.75617673       0.64441453 </v>
    <v>       0.55001868       0.52301278       0.50037105 </v>
    <v>       0.73564963       0.52405267       0.60587691 </v>
    <v>       0.49909496       0.61560123       0.51080263 </v>
    <v>       0.70188770       0.60601328       0.53965742 </v>
    <v>       0.68189680       0.69756709       0.67990181 </v>
    <v>       0.74672211       0.62470053       0.64421736 </v>
    <v>       0.53612292       0.68843593       0.58101028 </v>
    <v>       0.64159106       0.51827316       0.55281057 </v>
    <v>       0.58575126       0.65285471       0.67417517 </v>
    <v>       0.60385787       0.61577643       0.50213455 </v>
    <v>       0.65272211       0.58074478       0.64499141 </v>
    <v>       0.55748244       0.57865221       0.59917791 </v>
    <v>       0.64159693       0.68346343       0.57717370 </v>
   </varray>
  </structure>
  <varray name="forces" >
   <v>      -0.16698261       0.07036242       0.06411277 </v>
   <v>      -0.04754154      -0.06150717      -0.08913018 </v>
   <v>       0.02754294      -0.02285455      -0.04930096 </v>
   <v>      -0.13956021      -0.02032946       0.00129409 </v>
   <v>      -0.01416400      -0.05230796       0.11899797 </v>
   <v>      -0.00051859       0.00568056       0.10708284 </v>
   <v>       0.07601668      -0.03644345      -0.05491086 </v>
   <v>       0.04893695       0.01775303      -0.06571748 </v>
   <v>      -0.04175269      -0.01248406      -0.06824556 </v>
   <v>      -0.11514312       0.14441554       0.05977484 </v>
   <v>       0.02855486      -0.06825114       0.07440867 </v>
   <v>       0.21957728       0.02423674       0.01912240 </v>
   <v>      -0.01440076       0.05838470      -0.05746295 </v>
   <v>       0.13943481      -0.04665520      -0.06002560 </v>
  </varray>
  <varray name="stress" >
   <v>       0.04311573      -0.03853703       0.02486617 </v>
   <v>      -0.03853703      -0.02378246       0.07483612 </v>
   <v>       0.02486617       0.07483612      -0.04050750 </v>
  </varray>
  <energy>
   <i name="e_fr_energy">    -28.34246754 </i>
   <i name="e_wo_entrp">    -28.34246754 </i>
   <i name="e_0_energy">     -0.00000000 </i>
  </energy>
  <time name="totalsc">   65.22   68.55</time>
 </calculation>
 <calculation>
  <scstep>
   <time name="dav">    2.55    2.69</time>
   <time name="total">    3.13    3.29</time>
   <energy>
    <i name="alphaZ">     20.46726801 </i>
    <i name="ewald">  23234.67039663 </i>
    <i name="hartreedc"> -37092.24133650 </i>
    <i name="XCdc">   -164.45012300 </i>
    <i name="pawpsdc">  12189.07088678 </i>
    <i name="pawaedc"> -11560.01261813 </i>
    <i name="eentropy">     -0.00000000 </i>
    <i name="bandstr">  -1179.51625825 </i>
    <i name="atom">  14523.66059727 </i>
    <i name="e_fr_energy">    -28.35118719 </i>
    <i name="e_wo_entrp">    -28.35118719 </i>
    <i name="e_0_energy">    -28.35118719 </i>
   </energy>
  </scstep>
  <scstep>
   <time name="diag">    0.52    0.53</time>
   <time name="diis">    1.72    1.99</time>
   <time name="orth">    0.04    0.04</time>
   <time name="total">    2.86    3.15</time>
   <energy>
    <i name="e_fr_energy">    -28.35314585 </i>
    <i name="e_wo_entrp">    -28.35314585 </i>
    <i name="e_0_energy">    -28.35314585 </i>
   </energy>
  </scstep>
  <scstep>
   <time name="diag">    0.48    0.49</time>
   <time name="diis">    1.77    1.83</time>
   <time name="orth">    0.04    0.04</time>
   <time name="total">    2.88    2.95</time>
   <energy>
    <i name="e_fr_energy">    -28.35313371 </i>
    <i name="e_wo_entrp">    -28.35313371 </i>
    <i name="e_0_energy">    -28.35313371 </i>
   </energy>
  </scstep>
  <scstep>
   <time name="diag">    0.47    0.79</time>
   <time name="diis">    1.73    1.75</time>
   <time name="orth">    0.04    0.04</time>
   <time name="total">    2.82    3.17</time>
   <energy>
    <i name="e_fr_energy">    -28.35306324 </i>
    <i name="e_wo_entrp">    -28.35306324 </i>
    <i name="e_0_energy">    -28.35306324 </i>
   </energy>
  </scstep>
  <scstep>
   <time name="diag">    0.49    0.49</time>
   <time name="diis">    1.76    1.89</time>
   <time name="orth">    0.04    0.04</time>
   <time name="total">    2.93    3.23</time>
   <energy>
    <i name="e_fr_energy">    -28.35306325 </i>
    <i name="e_wo_entrp">    -28.35306325 </i>
    <i name="e_0_energy">    -28.35306325 </i>
   </energy>
  </scstep>
  <scstep>
   <time name="diag">    0.48    0.49</time>
   <time name="diis">    1.01    1.04</time>
   <time name="orth">    0.05    0.06</time>
   <time name="total">    1.91    1.97</time>
   <energy>
    <i name="alphaZ">     20.46726801 </i>
    <i name="ewald">  23234.67039663 </i>
    <i name="hartreedc"> -37092.55372559 </i>
    <i name="XCdc">   -164.44283491 </i>
    <i name="pawpsdc">  12187.92848978 </i>
    <i name="pawaedc"> -11558.78535897 </i>
    <i name="eentropy">     -0.00000000 </i>
    <i name="bandstr">  -1179.29788962 </i>
    <i name="atom">  14523.66059727 </i>
    <i name="e_fr_energy">    -28.35305740 </i>
    <i name="e_wo_entrp">    -28.35305740 </i>
    <i name="e_0_energy">    -28.35305740 </i>
   </energy>
  </scstep>
  <structure>
   <crystal>
    <varray name="basis" >
     <v>      26.58256484       0.00000000       0.00000000 </v>
     <v>       0.00000000      26.24339799       0.00000000 </v>
     <v>       0.00000000       0.00000000      24.37629473 </v>
    </varray>
    <i name="volume">  17005.31343267 </i>
    <varray name="rec_basis" >
     <v>       0.03761864       0.00000000       0.00000000 </v>
     <v>       0.00000000       0.03810482       0.00000000 </v>
     <v>       0.00000000       0.00000000       0.04102346 </v>
    </varray>
   </crystal>
   <varray name="positions" >
    <v>       0.59869254       0.75630608       0.64454142 </v>
    <v>       0.54993240       0.52289971       0.50019466 </v>
    <v>       0.73569962       0.52401066       0.60577934 </v>
    <v>       0.49884168       0.61556386       0.51080519 </v>
    <v>       0.70186200       0.60591712       0.53989293 </v>
    <v>       0.68189586       0.69757753       0.68011374 </v>
    <v>       0.74686007       0.62463354       0.64410869 </v>
    <v>       0.53621173       0.68846857       0.58088022 </v>
    <v>       0.64151529       0.51825021       0.55267551 </v>
    <v>       0.58554230       0.65312019       0.67429347 </v>
    <v>       0.60390969       0.61565097       0.50228182 </v>
    <v>       0.65312060       0.58078934       0.64502925 </v>
    <v>       0.55745631       0.57875954       0.59906419 </v>
    <v>       0.64184998       0.68337767       0.57705490 </v>
   </varray>
  </structure>
  <varray name="forces" >
   <v>      -0.13202582       0.03545751       0.04943090 </v>
   <v>      -0.04162493      -0.03949428      -0.07351966 </v>
   <v>       0.03187526      -0.03935788      -0.05304875 </v>
   <v>      -0.11139250      -0.02712431       0.00396810 </v>
   <v>       0.00318510      -0.05922606       0.09077500 </v>
   <v>      -0.01296819      -0.00321991       0.07812092 </v>
   <v>       0.08583706      -0.01191320      -0.03907046 </v>
   <v>       0.05213951       0.01322250      -0.06778947 </v>
   <v>      -0.03798749      -0.00354256      -0.05416155 </v>
   <v>      -0.07394506       0.09472826       0.02155291 </v>
   <v>       0.00191746      -0.06286104       0.05507260 </v>
   <v>       0.11901272       0.05232190       0.02009218 </v>
   <v>       0.01256033       0.05686935      -0.02714194 </v>
   <v>       0.10341654      -0.00586029      -0.00428079 </v>
  </varray>
  <varray name="stress" >
   <v>       0.01906178      -0.02769744       0.02153157 </v>
   <v>      -0.02769743      -0.03979750       0.06075661 </v>
   <v>       0.02153157       0.06075661      -0.05000209 </v>
  </varray>
  <energy>
   <i name="e_fr_energy">    -28.35305740 </i>
   <i name="e_wo_entrp">    -28.35305740 </i>
   <i name="e_0_energy">     -0.00000000 </i>
  </energy>
  <time name="totalsc">   20.80   22.26</time>
 </calculation>
 <calculation>
  <scstep>
   <time name="dav">    2.41    2.45</time>
   <time name="total">    2.99    3.03</time>
   <energy>
    <i name="alphaZ">     20.46726801 </i>
    <i name="ewald">  23177.51419551 </i>
    <i name="hartreedc"> -37035.63866150 </i>
    <i name="XCdc">   -164.53144834 </i>
    <i name="pawpsdc">  12187.90461618 </i>
    <i name="pawaedc"> -11558.76020421 </i>
    <i name="eentropy">     -0.00000000 </i>
    <i name="bandstr">  -1178.97031740 </i>
    <i name="atom">  14523.66059727 </i>
    <i name="e_fr_energy">    -28.35395448 </i>
    <i name="e_wo_entrp">    -28.35395448 </i>
    <i name="e_0_energy">    -28.35395448 </i>
   </energy>
  </scstep>
  <scstep>
   <time name="diag">    0.49    0.64</time>
   <time name="diis">    1.73    1.80</time>
   <time name="orth">    0.04    0.04</time>
   <time name="total">    2.91    3.21</time>
   <energy>
    <i name="e_fr_energy">    -28.36589483 </i>
    <i name="e_wo_entrp">    -28.36589483 </i>
    <i name="e_0_energy">    -28.36589483 </i>
   </energy>
  </scstep>
  <scstep>
   <time name="diag">    0.48    0.49</time>
   <time name="diis">    1.85    2.03</time>
   <time name="orth">    0.04    0.04</time>
   <time name="total">    2.96    3.64</time>
   <energy>
    <i name="e_fr_energy">    -28.36581913 </i>
    <i name="e_wo_entrp">    -28.36581913 </i>
    <i name="e_0_energy">    -28.36581913 </i>
   </energy>
  </scstep>
  <scstep>
   <time name="diag">    0.48    0.50</time>
   <time name="diis">    1.76    1.78</time>
   <time name="orth">    0.04    0.04</time>
   <time name="total">    2.86    2.91</time>
   <energy>
    <i name="e_fr_energy">    -28.36540097 </i>
    <i name="e_wo_entrp">    -28.36540097 </i>
    <i name="e_0_energy">    -28.36540097 </i>
   </energy>
  </scstep>
  <scstep>
   <time name="diag">    0.63    0.64</time>
   <time name="diis">    1.81    1.94</time>
   <time name="orth">    0.04    0.04</time>
   <time name="total">    3.06    3.21</time>
   <energy>
    <i name="e_fr_energy">    -28.36539861 </i>
    <i name="e_wo_entrp">    -28.36539861 </i>
    <i name="e_0_energy">    -28.36539861 </i>
   </energy>
  </scstep>
  <scstep>
   <time name="diag">    0.48    0.49</time>
   <time name="diis">    1.76    1.78</time>
   <time name="orth">    0.04    0.04</time>
   <time name="total">    2.96    3.00</time>
   <energy>
    <i name="e_fr_energy">    -28.36536196 </i>
    <i name="e_wo_entrp">    -28.36536196 </i>
    <i name="e_0_energy">    -28.36536196 </i>
   </energy>
  </scstep>
  <scstep>
   <time name="diag">    0.50    0.65</time>
   <time name="diis">    1.05    1.08</time>
   <time name="orth">    0.04    0.04</time>
   <time name="total">    1.96    2.15</time>
   <energy>
    <i name="alphaZ">     20.46726801 </i>
    <i name="ewald">  23177.51419551 </i>
    <i name="hartreedc"> -37036.38111002 </i>
    <i name="XCdc">   -164.51418170 </i>
    <i name="pawpsdc">  12185.39125577 </i>
    <i name="pawaedc"> -11556.04831927 </i>
    <i name="eentropy">     -0.00000000 </i>
    <i name="bandstr">  -1178.45506969 </i>
    <i name="atom">  14523.66059727 </i>
    <i name="e_fr_energy">    -28.36536411 </i>
    <i name="e_wo_entrp">    -28.36536411 </i>
    <i name="e_0_energy">    -28.36536411 </i>
   </energy>
  </scstep>
  <structure>
   <crystal>
    <varray name="basis" >
     <v>      26.58256484       0.00000000       0.00000000 </v>
     <v>       0.00000000      26.24339799       0.00000000 </v>
     <v>       0.00000000       0.00000000      24.37629473 </v>
    </varray>
    <i name="volume">  17005.31343267 </i>
    <varray name="rec_basis" >
     <v>       0.03761864       0.00000000       0.00000000 </v>
     <v>       0.00000000       0.03810482       0.00000000 </v>
     <v>       0.00000000       0.00000000       0.04102346 </v>
    </varray>
   </crystal>
   <varray name="positions" >
    <v>       0.59794993       0.75662304       0.64485235 </v>
    <v>       0.54972097       0.52262263       0.49976240 </v>
    <v>       0.73582211       0.52390770       0.60554024 </v>
    <v>       0.49822102       0.61547228       0.51081147 </v>
    <v>       0.70179901       0.60568149       0.54047004 </v>
    <v>       0.68189355       0.69760312       0.68063307 </v>
    <v>       0.74719813       0.62446937       0.64384238 </v>
    <v>       0.53642937       0.68854854       0.58056151 </v>
    <v>       0.64132960       0.51819398       0.55234453 </v>
    <v>       0.58503023       0.65377074       0.67458336 </v>
    <v>       0.60403668       0.61534351       0.50264268 </v>
    <v>       0.65409712       0.58089852       0.64512199 </v>
    <v>       0.55739227       0.57902254       0.59878551 </v>
    <v>       0.64247009       0.68316750       0.57676379 </v>
   </varray>
  </structure>
  <varray name="forces" >
   <v>      -0.06716492      -0.03204479       0.01121396 </v>
   <v>      -0.03670183       0.00448176      -0.04239823 </v>
   <v>       0.04456849      -0.07659047      -0.05854358 </v>
   <v>      -0.04615514      -0.03829983       0.01581424 </v>
   <v>       0.05177607      -0.07884076       0.01986521 </v>
   <v>      -0.05429672      -0.03513482       0.00458248 </v>
   <v>       0.11410088       0.05255177      -0.00579094 </v>
   <v>       0.05767377       0.00033924      -0.08273088 </v>
   <v>      -0.04083636      -0.00193976      -0.01138713 </v>
   <v>       0.02191291      -0.00356783      -0.04663748 </v>
   <v>      -0.05799784      -0.05824806       0.00920747 </v>
   <v>      -0.10150425       0.11363429       0.03117202 </v>
   <v>       0.08173966       0.06029810       0.03544184 </v>
   <v>       0.03288528       0.09336116       0.12019101 </v>
  </varray>
  <varray name="stress" >
   <v>      -0.02654512      -0.00277758       0.01171229 </v>
   <v>      -0.00277758      -0.06869226       0.03077469 </v>
   <v>       0.01171229       0.03077469      -0.07041352 </v>
  </varray>
  <energy>
   <i name="e_fr_energy">    -28.36536411 </i>
   <i name="e_wo_entrp">    -28.36536411 </i>
   <i name="e_0_energy">     -0.00000000 </i>
  </energy>
  <time name="totalsc">   23.89   25.72</time>
 </calculation>
 <calculation>
  <scstep>
   <time name="dav">    2.40    2.43</time>
   <time name="total">    2.97    3.01</time>
   <energy>
    <i name="alphaZ">     20.46726801 </i>
    <i name="ewald">  23160.10449360 </i>
    <i name="hartreedc"> -37019.04249996 </i>
    <i name="XCdc">   -164.54199787 </i>
    <i name="pawpsdc">  12185.37963126 </i>
    <i name="pawaedc"> -11556.03570894 </i>
    <i name="eentropy">     -0.00000000 </i>
    <i name="bandstr">  -1178.36264756 </i>
    <i name="atom">  14523.66059727 </i>
    <i name="e_fr_energy">    -28.37086419 </i>
    <i name="e_wo_entrp">    -28.37086419 </i>
    <i name="e_0_energy">    -28.37086419 </i>
   </energy>
  </scstep>
  <scstep>
   <time name="diag">    0.47    0.66</time>
   <time name="diis">    1.73    1.88</time>
   <time name="orth">    0.04    0.04</time>
   <time name="total">    2.82    3.17</time>
   <energy>
    <i name="e_fr_energy">    -28.37430895 </i>
    <i name="e_wo_entrp">    -28.37430895 </i>
    <i name="e_0_energy">    -28.37430895 </i>
   </energy>
  </scstep>
  <scstep>
   <time name="diag">    0.49    0.49</time>
   <time name="diis">    1.76    1.97</time>
   <time name="orth">    0.04    0.04</time>
   <time name="total">    2.89    3.12</time>
   <energy>
    <i name="e_fr_energy">    -28.37428563 </i>
    <i name="e_wo_entrp">    -28.37428563 </i>
    <i name="e_0_energy">    -28.37428563 </i>
   </energy>
  </scstep>
  <scstep>
   <time name="diag">    0.58    0.58</time>
   <time name="diis">    1.77    1.78</time>
   <time name="orth">    0.04    0.04</time>
   <time name="total">    3.01    3.13</time>
   <energy>
    <i name="e_fr_energy">    -28.37414948 </i>
    <i name="e_wo_entrp">    -28.37414948 </i>
    <i name="e_0_energy">    -28.37414948 </i>
   </energy>
  </scstep>
  <scstep>
   <time name="diag">    0.49    0.49</time>
   <time name="diis">    1.72    2.17</time>
   <time name="orth">    0.04    0.04</time>
   <time name="total">    2.82    3.28</time>
   <energy>
    <i name="e_fr_energy">    -28.37415501 </i>
    <i name="e_wo_entrp">    -28.37415501 </i>
    <i name="e_0_energy">    -28.37415501 </i>
   </energy>
  </scstep>
  <scstep>
   <time name="diag">    0.48    0.49</time>
   <time name="diis">    1.14    1.15</time>
   <time name="orth">    0.04    0.04</time>
   <time name="total">    2.24    2.27</time>
   <energy>
    <i name="e_fr_energy">    -28.37414412 </i>
    <i name="e_wo_entrp">    -28.37414412 </i>
    <i name="e_0_energy">    -28.37414412 </i>
   </energy>
  </scstep>
  <scstep>
   <time name="diag">    0.48    0.49</time>
   <time name="diis">    1.05    1.22</time>
   <time name="orth">    0.04    0.04</time>
   <time name="total">    1.94    2.13</time>
   <energy>
    <i name="alphaZ">     20.46726801 </i>
    <i name="ewald">  23160.10449360 </i>
    <i name="hartreedc"> -37019.33985271 </i>
    <i name="XCdc">   -164.53623706 </i>
    <i name="pawpsdc">  12184.46437640 </i>
    <i name="pawaedc"> -11555.05027808 </i>
    <i name="eentropy">     -0.00000000 </i>
    <i name="bandstr">  -1178.14451368 </i>
    <i name="atom">  14523.66059727 </i>
    <i name="e_fr_energy">    -28.37414626 </i>
    <i name="e_wo_entrp">    -28.37414626 </i>
    <i name="e_0_energy">    -28.37414626 </i>
   </energy>
  </scstep>
  <structure>
   <crystal>
    <varray name="basis" >
     <v>      26.58256484       0.00000000       0.00000000 </v>
     <v>       0.00000000      26.24339799       0.00000000 </v>
     <v>       0.00000000       0.00000000      24.37629473 </v>
    </varray>
    <i name="volume">  17005.31343267 </i>
    <varray name="rec_basis" >
     <v>       0.03761864       0.00000000       0.00000000 </v>
     <v>       0.00000000       0.03810482       0.00000000 </v>
     <v>       0.00000000       0.00000000       0.04102346 </v>
    </varray>
   </crystal>
   <varray name="positions" >
    <v>       0.59757273       0.75661873       0.64496730 </v>
    <v>       0.54956604       0.52256195       0.49952353 </v>
    <v>       0.73597489       0.52367079       0.60530463 </v>
    <v>       0.49793276       0.61534326       0.51085976 </v>
    <v>       0.70192243       0.60540348       0.54068061 </v>
    <v>       0.68174611       0.69751361       0.68078334 </v>
    <v>       0.74759572       0.62457009       0.64375517 </v>
    <v>       0.53664265       0.68857053       0.58023360 </v>
    <v>       0.64117027       0.51817385       0.55222379 </v>
    <v>       0.58495464       0.65393229       0.67452217 </v>
    <v>       0.60391328       0.61510299       0.50276487 </v>
    <v>       0.65407978       0.58123854       0.64523834 </v>
    <v>       0.55759645       0.57925697       0.59881664 </v>
    <v>       0.64272232       0.68336789       0.57704158 </v>
   </varray>
  </structure>
  <varray name="forces" >
   <v>      -0.05791892      -0.02106048       0.01055701 </v>
   <v>      -0.03172197       0.00605767      -0.02995835 </v>
   <v>       0.01726792      -0.04630821      -0.03625650 </v>
   <v>      -0.01843099      -0.03642408       0.02405209 </v>
   <v>       0.01366711      -0.04075429       0.01162911 </v>
   <v>      -0.03198430      -0.04176971       0.01574305 </v>
   <v>       0.07086687       0.03661101      -0.00921158 </v>
   <v>       0.05189145      -0.00425905      -0.08819505 </v>
   <v>      -0.02073156       0.00244048       0.01089976 </v>
   <v>       0.00482341      -0.00427382      -0.02722221 </v>
   <v>      -0.02516050      -0.02219728       0.02705461 </v>
   <v>      -0.04682533       0.09232032       0.01321503 </v>
   <v>       0.04803045       0.03617084       0.01465136 </v>
   <v>       0.02622636       0.04344662       0.06304165 </v>
  </varray>
  <varray name="stress" >
   <v>      -0.04749540       0.00419606       0.00821643 </v>
   <v>       0.00419606      -0.08427511       0.01419662 </v>
   <v>       0.00821643       0.01419662      -0.07535206 </v>
  </varray>
  <energy>
   <i name="e_fr_energy">    -28.37414626 </i>
   <i name="e_wo_entrp">    -28.37414626 </i>
   <i name="e_0_energy">     -0.00000000 </i>
  </energy>
  <time name="totalsc">   22.92   24.61</time>
 </calculation>
 <calculation>
  <scstep>
   <time name="dav">    2.52    2.64</time>
   <time name="total">    3.10    3.23</time>
   <energy>
    <i name="alphaZ">     20.46726801 </i>
    <i name="ewald">  23137.29114608 </i>
    <i name="hartreedc"> -36996.59095037 </i>
    <i name="XCdc">   -164.57105241 </i>
    <i name="pawpsdc">  12184.45340470 </i>
    <i name="pawaedc"> -11555.03881272 </i>
    <i name="eentropy">     -0.00000000 </i>
    <i name="bandstr">  -1178.04663164 </i>
    <i name="atom">  14523.66059727 </i>
    <i name="e_fr_energy">    -28.37503109 </i>
    <i name="e_wo_entrp">    -28.37503109 </i>
    <i name="e_0_energy">    -28.37503109 </i>
   </energy>
  </scstep>
  <scstep>
   <time name="diag">    0.48    0.49</time>
   <time name="diis">    1.84    1.89</time>
   <time name="orth">    0.04    0.04</time>
   <time name="total">    2.97    3.17</time>
   <energy>
    <i name="e_fr_energy">    -28.38090329 </i>
    <i name="e_wo_entrp">    -28.38090329 </i>
    <i name="e_0_energy">    -28.38090329 </i>
   </energy>
  </scstep>
  <scstep>
   <time name="diag">    0.52    0.52</time>
   <time name="diis">    1.75    1.77</time>
   <time name="orth">    0.04    0.04</time>
   <time name="total">    2.89    2.92</time>
   <energy>
    <i name="e_fr_energy">    -28.38086437 </i>
    <i name="e_wo_entrp">    -28.38086437 </i>
    <i name="e_0_energy">    -28.38086437 </i>
   </energy>
  </scstep>
  <scstep>
   <time name="diag">    0.52    0.61</time>
   <time name="diis">    1.75    1.89</time>
   <time name="orth">    0.06    0.06</time>
   <time name="total">    2.91    3.14</time>
   <energy>
    <i name="e_fr_energy">    -28.38062990 </i>
    <i name="e_wo_entrp">    -28.38062990 </i>
    <i name="e_0_energy">    -28.38062990 </i>
   </energy>
  </scstep>
  <scstep>
   <time name="diag">    0.49    0.49</time>
   <time name="diis">    1.72    1.74</time>
   <time name="orth">    0.09    0.20</time>
   <time name="total">    2.88    3.03</time>
   <energy>
    <i name="e_fr_energy">    -28.38063557 </i>
    <i name="e_wo_entrp">    -28.38063557 </i>
    <i name="e_0_energy">    -28.38063557 </i>
   </energy>
  </scstep>
  <scstep>
   <time name="diag">    0.48    0.49</time>
   <time name="diis">    1.63    1.89</time>
   <time name="orth">    0.03    0.37</time>
   <time name="total">    2.73    3.33</time>
   <energy>
    <i name="e_fr_energy">    -28.38061537 </i>
    <i name="e_wo_entrp">    -28.38061537 </i>
    <i name="e_0_energy">    -28.38061537 </i>
   </energy>
  </scstep>
  <scstep>
   <time name="diag">    0.48    0.49</time>
   <time name="diis">    1.07    1.16</time>
   <time name="orth">    0.04    0.04</time>
   <time name="total">    1.95    2.06</time>
   <energy>
    <i name="alphaZ">     20.46726801 </i>
    <i name="ewald">  23137.29114608 </i>
    <i name="hartreedc"> -36996.94703316 </i>
    <i name="XCdc">   -164.56371523 </i>
    <i name="pawpsdc">  12183.38405300 </i>
    <i name="pawaedc"> -11553.88326958 </i>
    <i name="eentropy">     -0.00000000 </i>
    <i name="bandstr">  -1177.78966420 </i>
    <i name="atom">  14523.66059727 </i>
    <i name="e_fr_energy">    -28.38061783 </i>
    <i name="e_wo_entrp">    -28.38061783 </i>
    <i name="e_0_energy">    -28.38061783 </i>
   </energy>
  </scstep>
  <structure>
   <crystal>
    <varray name="basis" >
     <v>      26.58256484       0.00000000       0.00000000 </v>
     <v>       0.00000000      26.24339799       0.00000000 </v>
     <v>       0.00000000       0.00000000      24.37629473 </v>
    </varray>
    <i name="volume">  17005.31343267 </i>
    <varray name="rec_basis" >
     <v>       0.03761864       0.00000000       0.00000000 </v>
     <v>       0.00000000       0.03810482       0.00000000 </v>
     <v>       0.00000000       0.00000000       0.04102346 </v>
    </varray>
   </crystal>
   <varray name="positions" >
    <v>       0.59708086       0.75661312       0.64511720 </v>
    <v>       0.54936401       0.52248281       0.49921204 </v>
    <v>       0.73617412       0.52336186       0.60499739 </v>
    <v>       0.49755685       0.61517500       0.51092273 </v>
    <v>       0.70208339       0.60504094       0.54095518 </v>
    <v>       0.68155385       0.69739690       0.68097931 </v>
    <v>       0.74811418       0.62470143       0.64364145 </v>
    <v>       0.53692077       0.68859921       0.57980600 </v>
    <v>       0.64096250       0.51814761       0.55206634 </v>
    <v>       0.58485606       0.65414295       0.67444237 </v>
    <v>       0.60375237       0.61478935       0.50292420 </v>
    <v>       0.65405718       0.58168193       0.64539006 </v>
    <v>       0.55786270       0.57956268       0.59885723 </v>
    <v>       0.64305123       0.68362920       0.57740381 </v>
   </varray>
  </structure>
  <varray name="forces" >
   <v>      -0.04305236      -0.01030661       0.01347986 </v>
   <v>      -0.03698885       0.00937927      -0.01297028 </v>
   <v>      -0.01279738      -0.00820180      -0.01559989 </v>
   <v>      -0.00117327      -0.03713367       0.03538184 </v>
   <v>      -0.02110803      -0.00425216       0.00506113 </v>
   <v>      -0.00532308      -0.05051843       0.03242048 </v>
   <v>       0.01761047       0.01825429      -0.01490232 </v>
   <v>       0.04412193      -0.00996612      -0.09486710 </v>
   <v>      -0.00395153       0.01299447       0.03246663 </v>
   <v>      -0.01044280      -0.00477584      -0.00491018 </v>
   <v>       0.01750459       0.02918434       0.03932305 </v>
   <v>       0.02575073       0.06509560      -0.00863692 </v>
   <v>       0.01178211       0.00804911       0.00157683 </v>
   <v>       0.01806748      -0.01780245      -0.00782314 </v>
  </varray>
  <varray name="stress" >
   <v>      -0.07325040       0.01288303       0.00358553 </v>
   <v>       0.01288303      -0.10140713      -0.00586768 </v>
   <v>       0.00358553      -0.00586768      -0.07921722 </v>
  </varray>
  <energy>
   <i name="e_fr_energy">    -28.38061783 </i>
   <i name="e_wo_entrp">    -28.38061783 </i>
   <i name="e_0_energy">     -0.00000000 </i>
  </energy>
  <time name="totalsc">   23.60   25.27</time>
 </calculation>
 <calculation>
  <scstep>
   <time name="dav">    2.44    2.62</time>
   <time name="total">    3.06    3.35</time>
   <energy>
    <i name="alphaZ">     20.46726801 </i>
    <i name="ewald">  23091.27928303 </i>
    <i name="hartreedc"> -36951.02772558 </i>
    <i name="XCdc">   -164.62734947 </i>
    <i name="pawpsdc">  12183.37594518 </i>
    <i name="pawaedc"> -11553.87457036 </i>
    <i name="eentropy">     -0.00000000 </i>
    <i name="bandstr">  -1177.60853797 </i>
    <i name="atom">  14523.66059727 </i>
    <i name="e_fr_energy">    -28.35508990 </i>
    <i name="e_wo_entrp">    -28.35508990 </i>
    <i name="e_0_energy">    -28.35508990 </i>
   </energy>
  </scstep>
  <scstep>
   <time name="diag">    0.48    0.49</time>
   <time name="diis">    1.86    1.90</time>
   <time name="orth">    0.04    0.04</time>
   <time name="total">    2.96    3.02</time>
   <energy>
    <i name="e_fr_energy">    -28.37903043 </i>
    <i name="e_wo_entrp">    -28.37903043 </i>
    <i name="e_0_energy">    -28.37903043 </i>
   </energy>
  </scstep>
  <scstep>
   <time name="diag">    0.61    0.73</time>
   <time name="diis">    1.75    1.78</time>
   <time name="orth">    0.04    0.04</time>
   <time name="total">    2.98    3.13</time>
   <energy>
    <i name="e_fr_energy">    -28.37887199 </i>
    <i name="e_wo_entrp">    -28.37887199 </i>
    <i name="e_0_energy">    -28.37887199 </i>
   </energy>
  </scstep>
  <scstep>
   <time name="diag">    0.49    0.51</time>
   <time name="diis">    1.88    1.90</time>
   <time name="orth">    0.04    0.04</time>
   <time name="total">    3.04    3.23</time>
   <energy>
    <i name="e_fr_energy">    -28.37795505 </i>
    <i name="e_wo_entrp">    -28.37795505 </i>
    <i name="e_0_energy">    -28.37795505 </i>
   </energy>
  </scstep>
  <scstep>
   <time name="diag">    0.49    0.49</time>
   <time name="diis">    1.72    1.75</time>
   <time name="orth">    0.04    0.04</time>
   <time name="total">    2.83    2.87</time>
   <energy>
    <i name="e_fr_energy">    -28.37792914 </i>
    <i name="e_wo_entrp">    -28.37792914 </i>
    <i name="e_0_energy">    -28.37792914 </i>
   </energy>
  </scstep>
  <scstep>
   <time name="diag">    0.49    0.49</time>
   <time name="diis">    1.75    1.93</time>
   <time name="orth">    0.04    0.04</time>
   <time name="total">    2.98    3.18</time>
   <energy>
    <i name="e_fr_energy">    -28.37785265 </i>
    <i name="e_wo_entrp">    -28.37785265 </i>
    <i name="e_0_energy">    -28.37785265 </i>
   </energy>
  </scstep>
  <scstep>
   <time name="diag">    0.49    0.49</time>
   <time name="diis">    1.09    1.12</time>
   <time name="orth">    0.04    0.04</time>
   <time name="total">    1.97    2.02</time>
   <energy>
    <i name="alphaZ">     20.46726801 </i>
    <i name="ewald">  23091.27928303 </i>
    <i name="hartreedc"> -36951.66446812 </i>
    <i name="XCdc">   -164.61374340 </i>
    <i name="pawpsdc">  12181.64638104 </i>
    <i name="pawaedc"> -11551.98864020 </i>
    <i name="eentropy">     -0.00000000 </i>
    <i name="bandstr">  -1177.16453511 </i>
    <i name="atom">  14523.66059727 </i>
    <i name="e_fr_energy">    -28.37785748 </i>
    <i name="e_wo_entrp">    -28.37785748 </i>
    <i name="e_0_energy">    -28.37785748 </i>
   </energy>
  </scstep>
  <structure>
   <crystal>
    <varray name="basis" >
     <v>      26.58256484       0.00000000       0.00000000 </v>
     <v>       0.00000000      26.24339799       0.00000000 </v>
     <v>       0.00000000       0.00000000      24.37629473 </v>
    </varray>
    <i name="volume">  17005.31343267 </i>
    <varray name="rec_basis" >
     <v>       0.03761864       0.00000000       0.00000000 </v>
     <v>       0.00000000       0.03810482       0.00000000 </v>
     <v>       0.00000000       0.00000000       0.04102346 </v>
    </varray>
   </crystal>
   <varray name="positions" >
    <v>       0.59609712       0.75660188       0.64541701 </v>
    <v>       0.54895994       0.52232453       0.49858907 </v>
    <v>       0.73657258       0.52274398       0.60438290 </v>
    <v>       0.49680505       0.61483849       0.51104867 </v>
    <v>       0.70240529       0.60431586       0.54150434 </v>
    <v>       0.68116932       0.69716347       0.68137123 </v>
    <v>       0.74915111       0.62496411       0.64341401 </v>
    <v>       0.53747701       0.68865656       0.57895080 </v>
    <v>       0.64054696       0.51809513       0.55175144 </v>
    <v>       0.58465891       0.65456427       0.67428278 </v>
    <v>       0.60343054       0.61416206       0.50324286 </v>
    <v>       0.65401197       0.58256872       0.64569351 </v>
    <v>       0.55839521       0.58017408       0.59893842 </v>
    <v>       0.64370906       0.68415182       0.57812829 </v>
   </varray>
  </structure>
  <varray name="forces" >
   <v>      -0.01102923       0.01854293       0.01284295 </v>
   <v>      -0.04239676       0.02761558       0.02786246 </v>
   <v>      -0.07223950       0.03659591       0.02167909 </v>
   <v>       0.03966874      -0.03622563       0.06501904 </v>
   <v>      -0.09483483       0.07890380      -0.00278895 </v>
   <v>       0.05272636      -0.05280558       0.06948841 </v>
   <v>      -0.06327290      -0.01377055      -0.01600364 </v>
   <v>       0.03434273      -0.02190226      -0.10677870 </v>
   <v>       0.02659151       0.02106435       0.07277711 </v>
   <v>      -0.06124721      -0.00472382       0.03858931 </v>
   <v>       0.09672714       0.13072519       0.05028913 </v>
   <v>       0.15774546       0.00876369      -0.05864091 </v>
   <v>      -0.07102725      -0.07122618      -0.02346054 </v>
   <v>       0.00824575      -0.12155743      -0.15087475 </v>
  </varray>
  <varray name="stress" >
   <v>      -0.11519651       0.02906559      -0.00340841 </v>
   <v>       0.02906559      -0.12437150      -0.04345475 </v>
   <v>      -0.00340841      -0.04345475      -0.07819527 </v>
  </varray>
  <energy>
   <i name="e_fr_energy">    -28.37785748 </i>
   <i name="e_wo_entrp">    -28.37785748 </i>
   <i name="e_0_energy">     -0.00000000 </i>
  </energy>
  <time name="totalsc">   24.15   25.45</time>
 </calculation>
 <calculation>
  <scstep>
   <time name="dav">    2.67    2.81</time>
   <time name="total">    3.25    3.40</time>
   <energy>
    <i name="alphaZ">     20.46726801 </i>
    <i name="ewald">  23120.25306057 </i>
    <i name="hartreedc"> -36980.67499335 </i>
    <i name="XCdc">   -164.57209906 </i>
    <i name="pawpsdc">  12181.64554836 </i>
    <i name="pawaedc"> -11551.98643507 </i>
    <i name="eentropy">     -0.00000000 </i>
    <i name="bandstr">  -1177.16601185 </i>
    <i name="atom">  14523.66059727 </i>
    <i name="e_fr_energy">    -28.37306512 </i>
    <i name="e_wo_entrp">    -28.37306512 </i>
    <i name="e_0_energy">    -28.37306512 </i>
   </energy>
  </scstep>
  <scstep>
   <time name="diag">    0.48    0.49</time>
   <time name="diis">    1.88    1.92</time>
   <time name="orth">    0.04    0.04</time>
   <time name="total">    2.97    3.03</time>
   <energy>
    <i name="e_fr_energy">    -28.38241618 </i>
    <i name="e_wo_entrp">    -28.38241618 </i>
    <i name="e_0_energy">    -28.38241618 </i>
   </energy>
  </scstep>
  <scstep>
   <time name="diag">    0.51    0.52</time>
   <time name="diis">    1.85    1.92</time>
   <time name="orth">    0.04    0.04</time>
   <time name="total">    2.98    3.08</time>
   <energy>
    <i name="e_fr_energy">    -28.38236511 </i>
    <i name="e_wo_entrp">    -28.38236511 </i>
    <i name="e_0_energy">    -28.38236511 </i>
   </energy>
  </scstep>
  <scstep>
   <time name="diag">    0.48    0.49</time>
   <time name="diis">    1.88    1.91</time>
   <time name="orth">    0.04    0.04</time>
   <time name="total">    2.99    3.02</time>
   <energy>
    <i name="e_fr_energy">    -28.38202243 </i>
    <i name="e_wo_entrp">    -28.38202243 </i>
    <i name="e_0_energy">    -28.38202243 </i>
   </energy>
  </scstep>
  <scstep>
   <time name="diag">    0.66    0.72</time>
   <time name="diis">    1.73    1.75</time>
   <time name="orth">    0.04    0.04</time>
   <time name="total">    3.01    3.09</time>
   <energy>
    <i name="e_fr_energy">    -28.38205123 </i>
    <i name="e_wo_entrp">    -28.38205123 </i>
    <i name="e_0_energy">    -28.38205123 </i>
   </energy>
  </scstep>
  <scstep>
   <time name="diag">    0.64    0.65</time>
   <time name="diis">    1.77    1.79</time>
   <time name="orth">    0.04    0.05</time>
   <time name="total">    3.08    3.28</time>
   <energy>
    <i name="e_fr_energy">    -28.38202379 </i>
    <i name="e_wo_entrp">    -28.38202379 </i>
    <i name="e_0_energy">    -28.38202379 </i>
   </energy>
  </scstep>
  <scstep>
   <time name="diag">    0.49    0.50</time>
   <time name="diis">    1.05    1.06</time>
   <time name="orth">    0.04    0.04</time>
   <time name="total">    1.95    1.98</time>
   <energy>
    <i name="alphaZ">     20.46726801 </i>
    <i name="ewald">  23120.25306057 </i>
    <i name="hartreedc"> -36980.26954515 </i>
    <i name="XCdc">   -164.58282720 </i>
    <i name="pawpsdc">  12182.64659648 </i>
    <i name="pawaedc"> -11553.08322942 </i>
    <i name="eentropy">     -0.00000000 </i>
    <i name="bandstr">  -1177.47394648 </i>
    <i name="atom">  14523.66059727 </i>
    <i name="e_fr_energy">    -28.38202592 </i>
    <i name="e_wo_entrp">    -28.38202592 </i>
    <i name="e_0_energy">    -28.38202592 </i>
   </energy>
  </scstep>
  <structure>
   <crystal>
    <varray name="basis" >
     <v>      26.58256484       0.00000000       0.00000000 </v>
     <v>       0.00000000      26.24339799       0.00000000 </v>
     <v>       0.00000000       0.00000000      24.37629473 </v>
    </varray>
    <i name="volume">  17005.31343267 </i>
    <varray name="rec_basis" >
     <v>       0.03761864       0.00000000       0.00000000 </v>
     <v>       0.00000000       0.03810482       0.00000000 </v>
     <v>       0.00000000       0.00000000       0.04102346 </v>
    </varray>
   </crystal>
   <varray name="positions" >
    <v>       0.59671529       0.75660894       0.64522862 </v>
    <v>       0.54921385       0.52242399       0.49898054 </v>
    <v>       0.73632219       0.52313225       0.60476904 </v>
    <v>       0.49727747       0.61504995       0.51096953 </v>
    <v>       0.70220301       0.60477149       0.54115926 </v>
    <v>       0.68141095       0.69731015       0.68112495 </v>
    <v>       0.74849952       0.62479904       0.64355693 </v>
    <v>       0.53712747       0.68862052       0.57948820 </v>
    <v>       0.64080808       0.51812811       0.55194932 </v>
    <v>       0.58478280       0.65429952       0.67438307 </v>
    <v>       0.60363277       0.61455624       0.50304262 </v>
    <v>       0.65404038       0.58201148       0.64550283 </v>
    <v>       0.55806059       0.57978989       0.59888740 </v>
    <v>       0.64329569       0.68382341       0.57767304 </v>
   </varray>
  </structure>
  <varray name="forces" >
   <v>      -0.02808752       0.00200832       0.01795926 </v>
   <v>      -0.04331031       0.01398998      -0.00110557 </v>
   <v>      -0.03389808       0.00653997      -0.00183106 </v>
   <v>       0.01781890      -0.04050634       0.04883213 </v>
   <v>      -0.04518602       0.02371969       0.00319000 </v>
   <v>       0.01232635      -0.05044284       0.04701618 </v>
   <v>      -0.01830183      -0.00039787      -0.01759759 </v>
   <v>       0.04063780      -0.01829149      -0.09830048 </v>
   <v>       0.00226068       0.01591139       0.04562301 </v>
   <v>      -0.03150670       0.00039077       0.01239333 </v>
   <v>       0.04647285       0.07982297       0.04329645 </v>
   <v>       0.08148856       0.04203834      -0.02549734 </v>
   <v>      -0.01789395      -0.02076783      -0.01085004 </v>
   <v>       0.01717928      -0.05401505      -0.06312829 </v>
  </varray>
  <varray name="stress" >
   <v>      -0.08871761       0.01924240       0.00036980 </v>
   <v>       0.01924240      -0.11150637      -0.02033889 </v>
   <v>       0.00036980      -0.02033889      -0.08027416 </v>
  </varray>
  <energy>
   <i name="e_fr_energy">    -28.38202592 </i>
   <i name="e_wo_entrp">    -28.38202592 </i>
   <i name="e_0_energy">     -0.00000000 </i>
  </energy>
  <time name="totalsc">   24.45   25.38</time>
 </calculation>
 <calculation>
  <scstep>
   <time name="dav">    2.40    2.58</time>
   <time name="total">    2.98    3.17</time>
   <energy>
    <i name="alphaZ">     20.46726801 </i>
    <i name="ewald">  23123.47632993 </i>
    <i name="hartreedc"> -36983.45937353 </i>
    <i name="XCdc">   -164.58048673 </i>
    <i name="pawpsdc">  12182.66455518 </i>
    <i name="pawaedc"> -11553.10172879 </i>
    <i name="eentropy">     -0.00000000 </i>
    <i name="bandstr">  -1177.50960058 </i>
    <i name="atom">  14523.66059727 </i>
    <i name="e_fr_energy">    -28.38243924 </i>
    <i name="e_wo_entrp">    -28.38243924 </i>
    <i name="e_0_energy">    -28.38243924 </i>
   </energy>
  </scstep>
  <scstep>
   <time name="diag">    0.47    1.10</time>
   <time name="diis">    1.73    1.92</time>
   <time name="orth">    0.04    0.04</time>
   <time name="total">    2.86    3.69</time>
   <energy>
    <i name="e_fr_energy">    -28.38708639 </i>
    <i name="e_wo_entrp">    -28.38708639 </i>
    <i name="e_0_energy">    -28.38708639 </i>
   </energy>
  </scstep>
  <scstep>
   <time name="diag">    0.49    0.49</time>
   <time name="diis">    1.79    1.92</time>
   <time name="orth">    0.04    0.04</time>
   <time name="total">    2.90    3.03</time>
   <energy>
    <i name="e_fr_energy">    -28.38705390 </i>
    <i name="e_wo_entrp">    -28.38705390 </i>
    <i name="e_0_energy">    -28.38705390 </i>
   </energy>
  </scstep>
  <scstep>
   <time name="diag">    0.49    0.49</time>
   <time name="diis">    1.82    1.87</time>
   <time name="orth">    0.04    0.04</time>
   <time name="total">    2.92    2.99</time>
   <energy>
    <i name="e_fr_energy">    -28.38686299 </i>
    <i name="e_wo_entrp">    -28.38686299 </i>
    <i name="e_0_energy">    -28.38686299 </i>
   </energy>
  </scstep>
  <scstep>
   <time name="diag">    0.48    0.49</time>
   <time name="diis">    1.75    1.89</time>
   <time name="orth">    0.04    0.04</time>
   <time name="total">    2.85    3.01</time>
   <energy>
    <i name="e_fr_energy">    -28.38687186 </i>
    <i name="e_wo_entrp">    -28.38687185 </i>
    <i name="e_0_energy">    -28.38687185 </i>
   </energy>
  </scstep>
  <scstep>
   <time name="diag">    0.65    0.66</time>
   <time name="diis">    1.22    1.24</time>
   <time name="orth">    0.04    0.04</time>
   <time name="total">    2.49    2.53</time>
   <energy>
    <i name="e_fr_energy">    -28.38685536 </i>
    <i name="e_wo_entrp">    -28.38685536 </i>
    <i name="e_0_energy">    -28.38685536 </i>
   </energy>
  </scstep>
  <scstep>
   <time name="diag">    0.50    0.50</time>
   <time name="diis">    1.06    1.18</time>
   <time name="orth">    0.04    0.04</time>
   <time name="total">    1.96    2.10</time>
   <energy>
    <i name="alphaZ">     20.46726801 </i>
    <i name="ewald">  23123.47632993 </i>
    <i name="hartreedc"> -36983.47162672 </i>
    <i name="XCdc">   -164.58035069 </i>
    <i name="pawpsdc">  12182.58472537 </i>
    <i name="pawaedc"> -11553.01627686 </i>
    <i name="eentropy">     -0.00000000 </i>
    <i name="bandstr">  -1177.50752233 </i>
    <i name="atom">  14523.66059727 </i>
    <i name="e_fr_energy">    -28.38685602 </i>
    <i name="e_wo_entrp">    -28.38685602 </i>
    <i name="e_0_energy">    -28.38685602 </i>
   </energy>
  </scstep>
  <structure>
   <crystal>
    <varray name="basis" >
     <v>      26.58256484       0.00000000       0.00000000 </v>
     <v>       0.00000000      26.24339799       0.00000000 </v>
     <v>       0.00000000       0.00000000      24.37629473 </v>
    </varray>
    <i name="volume">  17005.31343267 </i>
    <varray name="rec_basis" >
     <v>       0.03761864       0.00000000       0.00000000 </v>
     <v>       0.00000000       0.03810482       0.00000000 </v>
     <v>       0.00000000       0.00000000       0.04102346 </v>
    </varray>
   </crystal>
   <varray name="positions" >
    <v>       0.59628346       0.75661327       0.64540359 </v>
    <v>       0.54891149       0.52242803       0.49877230 </v>
    <v>       0.73631901       0.52295648       0.60456046 </v>
    <v>       0.49710199       0.61477863       0.51122015 </v>
    <v>       0.70213041       0.60462916       0.54135233 </v>
    <v>       0.68133383       0.69703291       0.68145466 </v>
    <v>       0.74876623       0.62488326       0.64340715 </v>
    <v>       0.53746903       0.68856637       0.57878716 </v>
    <v>       0.64068123       0.51817437       0.55204217 </v>
    <v>       0.58459446       0.65443870       0.67438410 </v>
    <v>       0.60371046       0.61466940       0.50333244 </v>
    <v>       0.65434617       0.58246865       0.64549257 </v>
    <v>       0.55816415       0.57990685       0.59886738 </v>
    <v>       0.64357815       0.68377890       0.57763888 </v>
   </varray>
  </structure>
  <varray name="forces" >
   <v>      -0.00053522      -0.01837985       0.00105033 </v>
   <v>      -0.00416606       0.01629730       0.01321012 </v>
   <v>      -0.03728964       0.01236267       0.01221439 </v>
   <v>       0.01052845      -0.03103610       0.04029161 </v>
   <v>      -0.01411173       0.02665782      -0.01703343 </v>
   <v>      -0.00236236      -0.04263663       0.02247638 </v>
   <v>      -0.01062521       0.00416198      -0.01140143 </v>
   <v>       0.05015101      -0.00438971      -0.07191069 </v>
   <v>      -0.00873430       0.01050935       0.04013992 </v>
   <v>      -0.02933902      -0.00591617      -0.00489261 </v>
   <v>       0.02044353       0.06229605       0.00566530 </v>
   <v>       0.04302144       0.02817096      -0.02142158 </v>
   <v>      -0.02317768      -0.04706230       0.00584849 </v>
   <v>       0.00619679      -0.01103538      -0.01423679 </v>
  </varray>
  <varray name="stress" >
   <v>      -0.09138535       0.02479571      -0.00358393 </v>
   <v>       0.02479571      -0.10688441      -0.02446172 </v>
   <v>      -0.00358393      -0.02446172      -0.07797545 </v>
  </varray>
  <energy>
   <i name="e_fr_energy">    -28.38685602 </i>
   <i name="e_wo_entrp">    -28.38685602 </i>
   <i name="e_0_energy">     -0.00000000 </i>
  </energy>
  <time name="totalsc">   23.22   24.81</time>
 </calculation>
 <calculation>
  <scstep>
   <time name="dav">    2.55    2.59</time>
   <time name="total">    3.23    3.38</time>
   <energy>
    <i name="alphaZ">     20.46726801 </i>
    <i name="ewald">  23126.39818808 </i>
    <i name="hartreedc"> -36986.35441231 </i>
    <i name="XCdc">   -164.57766223 </i>
    <i name="pawpsdc">  12182.58195350 </i>
    <i name="pawaedc"> -11553.01330160 </i>
    <i name="eentropy">     -0.00000000 </i>
    <i name="bandstr">  -1177.54737042 </i>
    <i name="atom">  14523.66059727 </i>
    <i name="e_fr_energy">    -28.38473970 </i>
    <i name="e_wo_entrp">    -28.38473970 </i>
    <i name="e_0_energy">    -28.38473970 </i>
   </energy>
  </scstep>
  <scstep>
   <time name="diag">    0.49    0.49</time>
   <time name="diis">    1.72    1.90</time>
   <time name="orth">    0.04    0.04</time>
   <time name="total">    2.83    3.02</time>
   <energy>
    <i name="e_fr_energy">    -28.38937306 </i>
    <i name="e_wo_entrp">    -28.38937306 </i>
    <i name="e_0_energy">    -28.38937306 </i>
   </energy>
  </scstep>
  <scstep>
   <time name="diag">    0.52    0.53</time>
   <time name="diis">    1.80    2.12</time>
   <time name="orth">    0.04    0.04</time>
   <time name="total">    2.94    3.27</time>
   <energy>
    <i name="e_fr_energy">    -28.38933871 </i>
    <i name="e_wo_entrp">    -28.38933871 </i>
    <i name="e_0_energy">    -28.38933871 </i>
   </energy>
  </scstep>
  <scstep>
   <time name="diag">    0.48    0.49</time>
   <time name="diis">    1.75    2.00</time>
   <time name="orth">    0.04    0.04</time>
   <time name="total">    2.85    3.28</time>
   <energy>
    <i name="e_fr_energy">    -28.38914430 </i>
    <i name="e_wo_entrp">    -28.38914430 </i>
    <i name="e_0_energy">    -28.38914430 </i>
   </energy>
  </scstep>
  <scstep>
   <time name="diag">    0.48    0.49</time>
   <time name="diis">    1.73    1.76</time>
   <time name="orth">    0.04    0.04</time>
   <time name="total">    2.83    2.88</time>
   <energy>
    <i name="e_fr_energy">    -28.38915240 </i>
    <i name="e_wo_entrp">    -28.38915240 </i>
    <i name="e_0_energy">    -28.38915240 </i>
   </energy>
  </scstep>
  <scstep>
   <time name="diag">    0.49    0.49</time>
   <time name="diis">    1.25    1.43</time>
   <time name="orth">    0.04    0.04</time>
   <time name="total">    2.36    2.75</time>
   <energy>
    <i name="e_fr_energy">    -28.38913596 </i>
    <i name="e_wo_entrp">    -28.38913596 </i>
    <i name="e_0_energy">    -28.38913596 </i>
   </energy>
  </scstep>
  <scstep>
   <time name="diag">    0.49    0.51</time>
   <time name="diis">    1.02    1.04</time>
   <time name="orth">    0.04    0.04</time>
   <time name="total">    1.91    1.95</time>
   <energy>
    <i name="alphaZ">     20.46726801 </i>
    <i name="ewald">  23126.39818808 </i>
    <i name="hartreedc"> -36986.38042066 </i>
    <i name="XCdc">   -164.57732863 </i>
    <i name="pawpsdc">  12182.55554642 </i>
    <i name="pawaedc"> -11552.98286502 </i>
    <i name="eentropy">     -0.00000000 </i>
    <i name="bandstr">  -1177.53012283 </i>
    <i name="atom">  14523.66059727 </i>
    <i name="e_fr_energy">    -28.38913736 </i>
    <i name="e_wo_entrp">    -28.38913736 </i>
    <i name="e_0_energy">    -28.38913736 </i>
   </energy>
  </scstep>
  <structure>
   <crystal>
    <varray name="basis" >
     <v>      26.58256484       0.00000000       0.00000000 </v>
     <v>       0.00000000      26.24339799       0.00000000 </v>
     <v>       0.00000000       0.00000000      24.37629473 </v>
    </varray>
    <i name="volume">  17005.31343267 </i>
    <varray name="rec_basis" >
     <v>       0.03761864       0.00000000       0.00000000 </v>
     <v>       0.00000000       0.03810482       0.00000000 </v>
     <v>       0.00000000       0.00000000       0.04102346 </v>
    </varray>
   </crystal>
   <varray name="positions" >
    <v>       0.59585201       0.75661760       0.64557840 </v>
    <v>       0.54860940       0.52243207       0.49856424 </v>
    <v>       0.73631582       0.52278086       0.60435207 </v>
    <v>       0.49692667       0.61450754       0.51147054 </v>
    <v>       0.70205788       0.60448695       0.54154522 </v>
    <v>       0.68125678       0.69675591       0.68178408 </v>
    <v>       0.74903271       0.62496740       0.64325750 </v>
    <v>       0.53781028       0.68851226       0.57808674 </v>
    <v>       0.64055450       0.51822058       0.55213494 </v>
    <v>       0.58440629       0.65457776       0.67438513 </v>
    <v>       0.60378807       0.61478245       0.50362201 </v>
    <v>       0.65465168       0.58292542       0.64548232 </v>
    <v>       0.55826761       0.58002371       0.59884737 </v>
    <v>       0.64386036       0.68373443       0.57760475 </v>
   </varray>
  </structure>
  <varray name="forces" >
   <v>       0.02451632      -0.04287771      -0.01852190 </v>
   <v>       0.02997481       0.02526285       0.03343323 </v>
   <v>      -0.04108403       0.01469294       0.01608755 </v>
   <v>       0.00257086      -0.01308849       0.01856788 </v>
   <v>       0.01526202       0.02902273      -0.04112467 </v>
   <v>      -0.01444145      -0.04097192       0.00419278 </v>
   <v>       0.00587550       0.00580191      -0.00897768 </v>
   <v>       0.05649748      -0.00225636      -0.04499239 </v>
   <v>      -0.02933928       0.00951166       0.03823607 </v>
   <v>      -0.03182307      -0.01899733      -0.01772847 </v>
   <v>      -0.00636432       0.04919824      -0.01528655 </v>
   <v>       0.01278089       0.01955494      -0.01817784 </v>
   <v>      -0.01954100      -0.07055925       0.02389071 </v>
   <v>      -0.00488474       0.03570577       0.03040127 </v>
  </varray>
  <varray name="stress" >
   <v>      -0.09389866       0.02832992      -0.00862415 </v>
   <v>       0.02832992      -0.10397038      -0.02819419 </v>
   <v>      -0.00862415      -0.02819419      -0.07917436 </v>
  </varray>
  <energy>
   <i name="e_fr_energy">    -28.38913736 </i>
   <i name="e_wo_entrp">    -28.38913736 </i>
   <i name="e_0_energy">     -0.00000000 </i>
  </energy>
  <time name="totalsc">   23.09   25.07</time>
 </calculation>
 <calculation>
  <scstep>
[...]
       <r>   -9.1188    1.0000 </r>
       <r>   -9.0747    1.0000 </r>
       <r>   -9.0553    1.0000 </r>
       <r>   -9.0464    1.0000 </r>
       <r>   -9.0217    1.0000 </r>
       <r>   -8.8935    1.0000 </r>
       <r>   -8.8520    1.0000 </r>
       <r>   -8.7910    1.0000 </r>
       <r>   -8.7756    1.0000 </r>
       <r>   -8.7100    1.0000 </r>
       <r>   -8.6736    1.0000 </r>
       <r>   -8.6501    1.0000 </r>
       <r>   -8.5567    1.0000 </r>
       <r>   -8.5187    1.0000 </r>
       <r>   -8.5026    1.0000 </r>
       <r>   -8.4038    1.0000 </r>
       <r>   -8.3716    1.0000 </r>
       <r>   -8.3515    1.0000 </r>
       <r>   -8.2887    1.0000 </r>
       <r>   -8.2575    1.0000 </r>
       <r>   -8.2317    1.0000 </r>
       <r>   -8.2215    1.0000 </r>
       <r>   -8.1779    1.0000 </r>
       <r>   -8.0916    1.0000 </r>
       <r>   -8.0900    1.0000 </r>
       <r>   -7.8789    1.0000 </r>
       <r>   -7.8659    1.0000 </r>
       <r>   -7.8229    1.0000 </r>
       <r>   -7.7633    1.0000 </r>
       <r>   -7.7208    1.0000 </r>
       <r>   -7.6747    1.0000 </r>
       <r>   -7.6645    1.0000 </r>
       <r>   -7.6307    1.0000 </r>
       <r>   -7.5637    1.0000 </r>
       <r>   -7.4995    1.0000 </r>
       <r>   -7.4767    1.0000 </r>
       <r>   -7.4653    1.0000 </r>
       <r>   -7.4385    1.0000 </r>
       <r>   -7.4355    1.0000 </r>
       <r>   -7.4307    1.0000 </r>
       <r>   -7.4253    1.0000 </r>
       <r>   -7.4076    1.0000 </r>
       <r>   -7.3969    1.0000 </r>
       <r>   -7.3522    1.0000 </r>
       <r>   -7.3246    1.0000 </r>
       <r>   -7.3218    1.0000 </r>
       <r>   -7.3065    1.0000 </r>
       <r>   -7.2597    1.0000 </r>
       <r>   -7.2458    1.0000 </r>
       <r>   -7.2101    1.0000 </r>
       <r>   -7.1560    1.0000 </r>
       <r>   -7.1406    1.0000 </r>
       <r>   -7.1150    1.0000 </r>
       <r>   -7.1095    1.0000 </r>
       <r>   -7.0854    1.0000 </r>
       <r>   -7.0653    1.0000 </r>
       <r>   -7.0387    1.0000 </r>
       <r>   -6.9946    1.0000 </r>
       <r>   -6.9743    1.0000 </r>
       <r>   -6.9434    1.0000 </r>
       <r>   -6.9299    1.0000 </r>
       <r>   -6.9168    1.0000 </r>
       <r>   -6.8080    1.0000 </r>
       <r>   -6.7982    1.0000 </r>
       <r>   -6.7238    1.0000 </r>
       <r>   -6.7103    1.0000 </r>
       <r>   -6.6978    1.0000 </r>
       <r>   -6.5035    1.0000 </r>
       <r>   -6.3813    1.0000 </r>
       <r>   -4.9631    1.0000 </r>
       <r>   -4.8593    1.0000 </r>
       <r>   -4.7095    1.0000 </r>
       <r>   -4.4899    1.0000 </r>
       <r>   -3.2334    0.0000 </r>
       <r>   -3.2286    0.0000 </r>
       <r>   -2.8216    0.0000 </r>
       <r>   -2.7680    0.0000 </r>
       <r>   -2.4690    0.0000 </r>
       <r>   -2.3941    0.0000 </r>
       <r>   -2.0966    0.0000 </r>
       <r>   -1.5423    0.0000 </r>
       <r>   -1.3933    0.0000 </r>
       <r>   -1.2778    0.0000 </r>
       <r>   -1.0298    0.0000 </r>
       <r>   -1.0049    0.0000 </r>
       <r>   -0.9027    0.0000 </r>
       <r>   -0.6515    0.0000 </r>
       <r>   -0.6433    0.0000 </r>
      </set>
     </set>
    </set>
   </array>
  </eigenvalues>
  <separator name="orbital magnetization" >
   <v name="MAGDIPOLOUT">      0.00000000      0.00000000      0.00000000</v>
  </separator>
  <dos>
   <i name="efermi">     -4.24198524 </i>
   <total>
    <array>
     <dimension dim="1">gridpoints</dimension>
     <dimension dim="2">spin</dimension>
     <field>energy</field>
     <field>total</field>
     <field>integrated</field>
     <set>
      <set comment="spin 1">
       <r>    -9.9033     0.0000     0.0000 </r>
       <r>    -9.8707     0.0000     0.0000 </r>
       <r>    -9.8382     0.0000     0.0000 </r>
       <r>    -9.8057     0.0000     0.0000 </r>
       <r>    -9.7731     0.0000     0.0000 </r>
       <r>    -9.7406     0.0000     0.0000 </r>
       <r>    -9.7081     0.0000     0.0000 </r>
       <r>    -9.6755     0.0000     0.0000 </r>
       <r>    -9.6430     0.0000     0.0000 </r>
       <r>    -9.6105     0.0000     0.0000 </r>
       <r>    -9.5779     0.0000     0.0000 </r>
       <r>    -9.5454     0.0018     0.0001 </r>
       <r>    -9.5129     0.0577     0.0019 </r>
       <r>    -9.4803     0.8402     0.0293 </r>
       <r>    -9.4478     5.4876     0.2078 </r>
       <r>    -9.4153    16.1920     0.7346 </r>
       <r>    -9.3827    21.8730     1.4462 </r>
       <r>    -9.3502    15.4516     1.9489 </r>
       <r>    -9.3177    14.6343     2.4250 </r>
       <r>    -9.2851    27.0076     3.3036 </r>
       <r>    -9.2526    35.9810     4.4742 </r>
       <r>    -9.2201    29.7053     5.4406 </r>
       <r>    -9.1875    17.1826     5.9996 </r>
       <r>    -9.1550    21.0587     6.6847 </r>
       <r>    -9.1225    46.3639     8.1931 </r>
       <r>    -9.0899    70.8669    10.4986 </r>
       <r>    -9.0574    84.5686    13.2499 </r>
       <r>    -9.0249    79.1449    15.8247 </r>
       <r>    -8.9923    47.7205    17.3772 </r>
       <r>    -8.9598    17.9288    17.9605 </r>
       <r>    -8.9273    12.4046    18.3640 </r>
       <r>    -8.8947    25.7688    19.2024 </r>
       <r>    -8.8622    38.5120    20.4553 </r>
       <r>    -8.8297    41.4235    21.8029 </r>
       <r>    -8.7971    45.7922    23.2927 </r>
       <r>    -8.7646    49.7097    24.9099 </r>
       <r>    -8.7321    43.8885    26.3377 </r>
       <r>    -8.6995    45.5182    27.8186 </r>
       <r>    -8.6670    53.4606    29.5578 </r>
       <r>    -8.6345    46.5056    31.0708 </r>
       <r>    -8.6019    28.7560    32.0063 </r>
       <r>    -8.5694    27.5651    32.9031 </r>
       <r>    -8.5369    44.8523    34.3623 </r>
       <r>    -8.5043    54.6894    36.1415 </r>
       <r>    -8.4718    40.9791    37.4747 </r>
       <r>    -8.4393    24.9270    38.2857 </r>
       <r>    -8.4067    33.1930    39.3655 </r>
       <r>    -8.3742    52.6168    41.0773 </r>
       <r>    -8.3417    55.9780    42.8985 </r>
       <r>    -8.3091    47.2326    44.4351 </r>
       <r>    -8.2766    52.5306    46.1441 </r>
       <r>    -8.2441    69.2433    48.3968 </r>
       <r>    -8.2115    73.0290    50.7727 </r>
       <r>    -8.1790    56.3739    52.6067 </r>
       <r>    -8.1465    36.8464    53.8054 </r>
       <r>    -8.1139    35.2245    54.9514 </r>
       <r>    -8.0814    44.8805    56.4115 </r>
       <r>    -8.0489    34.3081    57.5276 </r>
       <r>    -8.0163    12.3531    57.9295 </r>
       <r>    -7.9838     2.1325    57.9989 </r>
       <r>    -7.9513     1.7711    58.0565 </r>
       <r>    -7.9187    10.6007    58.4014 </r>
       <r>    -7.8862    33.0110    59.4753 </r>
       <r>    -7.8537    52.6872    61.1894 </r>
       <r>    -7.8211    50.6933    62.8386 </r>
       <r>    -7.7886    40.6286    64.1604 </r>
       <r>    -7.7561    39.6983    65.4519 </r>
       <r>    -7.7235    45.8822    66.9446 </r>
       <r>    -7.6910    55.4028    68.7470 </r>
       <r>    -7.6585    64.5768    70.8479 </r>
       <r>    -7.6259    57.9985    72.7348 </r>
       <r>    -7.5934    40.4872    74.0520 </r>
       <r>    -7.5609    32.7829    75.1185 </r>
       <r>    -7.5283    37.5822    76.3412 </r>
       <r>    -7.4958    61.0238    78.3265 </r>
       <r>    -7.4633   105.6429    81.7634 </r>
       <r>    -7.4307   144.5605    86.4664 </r>
       <r>    -7.3982   139.8223    91.0152 </r>
       <r>    -7.3657   103.9115    94.3958 </r>
       <r>    -7.3331    90.5482    97.3416 </r>
       <r>    -7.3006    91.2394   100.3099 </r>
       <r>    -7.2681    79.9444   102.9108 </r>
       <r>    -7.2355    69.3418   105.1667 </r>
       <r>    -7.2030    59.5264   107.1033 </r>
       <r>    -7.1705    58.1285   108.9944 </r>
       <r>    -7.1379    77.8427   111.5269 </r>
       <r>    -7.1054    98.1865   114.7212 </r>
       <r>    -7.0729    96.6770   117.8664 </r>
       <r>    -7.0403    79.5690   120.4550 </r>
       <r>    -7.0078    67.0379   122.6360 </r>
       <r>    -6.9753    71.7827   124.9713 </r>
       <r>    -6.9427    83.0127   127.6720 </r>
       <r>    -6.9102    75.8685   130.1402 </r>
       <r>    -6.8777    44.7156   131.5949 </r>
       <r>    -6.8451    25.1749   132.4140 </r>
       <r>    -6.8126    36.2483   133.5932 </r>
       <r>    -6.7801    47.6205   135.1425 </r>
       <r>    -6.7475    48.3342   136.7149 </r>
       <r>    -6.7150    60.7280   138.6906 </r>
       <r>    -6.6825    60.5617   140.6609 </r>
       <r>    -6.6499    31.9387   141.6999 </r>
       <r>    -6.6174     8.2125   141.9671 </r>
       <r>    -6.5849     1.6091   142.0195 </r>
       <r>    -6.5523     4.5356   142.1670 </r>
       <r>    -6.5198    14.6776   142.6445 </r>
       <r>    -6.4873    21.8767   143.3563 </r>
       <r>    -6.4547    15.7833   143.8697 </r>
       <r>    -6.4222    10.9283   144.2253 </r>
       <r>    -6.3897    17.9905   144.8106 </r>
       <r>    -6.3571    21.3398   145.5048 </r>
       <r>    -6.3246    11.8681   145.8909 </r>
       <r>    -6.2921     2.9950   145.9883 </r>
       <r>    -6.2596     0.3405   145.9994 </r>
       <r>    -6.2270     0.0173   146.0000 </r>
       <r>    -6.1945     0.0004   146.0000 </r>
       <r>    -6.1620     0.0000   146.0000 </r>
       <r>    -6.1294     0.0000   146.0000 </r>
       <r>    -6.0969     0.0000   146.0000 </r>
       <r>    -6.0644     0.0000   146.0000 </r>
       <r>    -6.0318     0.0000   146.0000 </r>
       <r>    -5.9993     0.0000   146.0000 </r>
       <r>    -5.9668     0.0000   146.0000 </r>
       <r>    -5.9342     0.0000   146.0000 </r>
       <r>    -5.9017     0.0000   146.0000 </r>
       <r>    -5.8692     0.0000   146.0000 </r>
       <r>    -5.8366     0.0000   146.0000 </r>
       <r>    -5.8041     0.0000   146.0000 </r>
       <r>    -5.7716     0.0000   146.0000 </r>
       <r>    -5.7390     0.0000   146.0000 </r>
       <r>    -5.7065     0.0000   146.0000 </r>
       <r>    -5.6740     0.0000   146.0000 </r>
       <r>    -5.6414     0.0000   146.0000 </r>
       <r>    -5.6089     0.0000   146.0000 </r>
       <r>    -5.5764     0.0000   146.0000 </r>
       <r>    -5.5438     0.0000   146.0000 </r>
       <r>    -5.5113     0.0000   146.0000 </r>
       <r>    -5.4788     0.0000   146.0000 </r>
       <r>    -5.4462     0.0000   146.0000 </r>
       <r>    -5.4137     0.0000   146.0000 </r>
       <r>    -5.3812     0.0000   146.0000 </r>
       <r>    -5.3486     0.0000   146.0000 </r>
       <r>    -5.3161     0.0000   146.0000 </r>
       <r>    -5.2836     0.0000   146.0000 </r>
       <r>    -5.2510     0.0000   146.0000 </r>
       <r>    -5.2185     0.0000   146.0000 </r>
       <r>    -5.1860     0.0000   146.0000 </r>
       <r>    -5.1534     0.0000   146.0000 </r>
       <r>    -5.1209     0.0002   146.0000 </r>
       <r>    -5.0884     0.0119   146.0004 </r>
       <r>    -5.0558     0.2559   146.0087 </r>
       <r>    -5.0233     2.4567   146.0886 </r>
       <r>    -4.9908    10.6205   146.4342 </r>
       <r>    -4.9582    20.9185   147.1147 </r>
       <r>    -4.9257    20.1538   147.7704 </r>
       <r>    -4.8932    15.9889   148.2905 </r>
       <r>    -4.8606    20.7844   148.9667 </r>
       <r>    -4.8281    20.1879   149.6235 </r>
       <r>    -4.7956     9.8385   149.9436 </r>
       <r>    -4.7630     5.5313   150.1235 </r>
       <r>    -4.7305    13.1786   150.5523 </r>
       <r>    -4.6980    21.6230   151.2557 </r>
       <r>    -4.6654    16.3416   151.7874 </r>
       <r>    -4.6329     5.6067   151.9698 </r>
       <r>    -4.6004     0.9215   151.9998 </r>
       <r>    -4.5678     0.8533   152.0275 </r>
       <r>    -4.5353     5.2866   152.1995 </r>
       <r>    -4.5028    15.8998   152.7168 </r>
       <r>    -4.4702    21.7001   153.4228 </r>
       <r>    -4.4377    13.4547   153.8605 </r>
       <r>    -4.4052     3.7814   153.9835 </r>
       <r>    -4.3726     0.4791   153.9991 </r>
       <r>    -4.3401     0.0272   154.0000 </r>
       <r>    -4.3076     0.0007   154.0000 </r>
       <r>    -4.2750     0.0000   154.0000 </r>
       <r>    -4.2425     0.0000   154.0000 </r>
       <r>    -4.2100     0.0000   154.0000 </r>
       <r>    -4.1774     0.0000   154.0000 </r>
       <r>    -4.1449     0.0000   154.0000 </r>
       <r>    -4.1124     0.0000   154.0000 </r>
       <r>    -4.0798     0.0000   154.0000 </r>
       <r>    -4.0473     0.0000   154.0000 </r>
       <r>    -4.0148     0.0000   154.0000 </r>
       <r>    -3.9822     0.0000   154.0000 </r>
       <r>    -3.9497     0.0000   154.0000 </r>
       <r>    -3.9172     0.0000   154.0000 </r>
       <r>    -3.8846     0.0000   154.0000 </r>
       <r>    -3.8521     0.0000   154.0000 </r>
       <r>    -3.8196     0.0000   154.0000 </r>
       <r>    -3.7870     0.0000   154.0000 </r>
       <r>    -3.7545     0.0000   154.0000 </r>
       <r>    -3.7220     0.0000   154.0000 </r>
       <r>    -3.6894     0.0000   154.0000 </r>
       <r>    -3.6569     0.0000   154.0000 </r>
       <r>    -3.6244     0.0000   154.0000 </r>
       <r>    -3.5918     0.0000   154.0000 </r>
       <r>    -3.5593     0.0000   154.0000 </r>
       <r>    -3.5268     0.0000   154.0000 </r>
       <r>    -3.4942     0.0000   154.0000 </r>
       <r>    -3.4617     0.0000   154.0000 </r>
       <r>    -3.4292     0.0000   154.0000 </r>
       <r>    -3.3966     0.0002   154.0000 </r>
       <r>    -3.3641     0.0104   154.0003 </r>
       <r>    -3.3316     0.2683   154.0091 </r>
       <r>    -3.2990     3.0921   154.1097 </r>
       <r>    -3.2665    16.0725   154.6326 </r>
       <r>    -3.2340    37.9124   155.8660 </r>
       <r>    -3.2014    40.7404   157.1914 </r>
       <r>    -3.1689    19.9510   157.8405 </r>
       <r>    -3.1364     4.4379   157.9848 </r>
       <r>    -3.1038     0.4457   157.9993 </r>
       <r>    -3.0713     0.0201   158.0000 </r>
       <r>    -3.0388     0.0004   158.0000 </r>
       <r>    -3.0062     0.0000   158.0000 </r>
       <r>    -2.9737     0.0005   158.0000 </r>
       <r>    -2.9412     0.0216   158.0007 </r>
       <r>    -2.9086     0.4052   158.0139 </r>
       <r>    -2.8761     3.4289   158.1255 </r>
       <r>    -2.8436    13.5730   158.5670 </r>
       <r>    -2.8110    27.4034   159.4585 </r>
       <r>    -2.7785    33.3529   160.5436 </r>
       <r>    -2.7460    27.3798   161.4344 </r>
       <r>    -2.7134    13.5445   161.8750 </r>
       <r>    -2.6809     3.4165   161.9862 </r>
       <r>    -2.6484     0.4031   161.9993 </r>
       <r>    -2.6158     0.0225   162.0000 </r>
       <r>    -2.5833     0.0371   162.0012 </r>
       <r>    -2.5508     0.5989   162.0207 </r>
       <r>    -2.5182     4.4038   162.1640 </r>
       <r>    -2.4857    14.8061   162.6457 </r>
       <r>    -2.4532    24.4061   163.4397 </r>
       <r>    -2.4206    25.8466   164.2805 </r>
       <r>    -2.3881    25.5400   165.1114 </r>
       <r>    -2.3556    18.7751   165.7223 </r>
       <r>    -2.3230     7.1659   165.9554 </r>
       <r>    -2.2905     1.2668   165.9966 </r>
       <r>    -2.2580     0.1011   165.9999 </r>
       <r>    -2.2254     0.0117   166.0003 </r>
       <r>    -2.1929     0.1900   166.0064 </r>
       <r>    -2.1604     1.9918   166.0712 </r>
       <r>    -2.1278     9.3936   166.3769 </r>
       <r>    -2.0953    20.0484   167.0291 </r>
       <r>    -2.0628    19.4313   167.6613 </r>
       <r>    -2.0302     8.5514   167.9395 </r>
       <r>    -1.9977     1.7024   167.9948 </r>
       <r>    -1.9652     0.1524   167.9998 </r>
       <r>    -1.9326     0.0061   168.0000 </r>
       <r>    -1.9001     0.0001   168.0000 </r>
       <r>    -1.8676     0.0000   168.0000 </r>
       <r>    -1.8350     0.0000   168.0000 </r>
       <r>    -1.8025     0.0000   168.0000 </r>
       <r>    -1.7700     0.0000   168.0000 </r>
       <r>    -1.7374     0.0000   168.0000 </r>
       <r>    -1.7049     0.0001   168.0000 </r>
       <r>    -1.6724     0.0070   168.0002 </r>
       <r>    -1.6398     0.1704   168.0058 </r>
       <r>    -1.6073     1.8439   168.0658 </r>
       <r>    -1.5748     8.9720   168.3577 </r>
       <r>    -1.5422    19.7532   169.0003 </r>
       <r>    -1.5097    19.7768   169.6437 </r>
       <r>    -1.4772     9.4785   169.9521 </r>
       <r>    -1.4446     5.8063   170.1409 </r>
       <r>    -1.4121    13.9653   170.5953 </r>
       <r>    -1.3796    21.8699   171.3068 </r>
       <r>    -1.3470    16.9927   171.8596 </r>
       <r>    -1.3145    12.7015   172.2728 </r>
       <r>    -1.2820    19.3839   172.9034 </r>
       <r>    -1.2494    20.6969   173.5768 </r>
       <r>    -1.2169    10.3890   173.9148 </r>
       <r>    -1.1844     2.3664   173.9918 </r>
       <r>    -1.1518     0.2603   174.0002 </r>
       <r>    -1.1193     0.3794   174.0126 </r>
       <r>    -1.0868     3.5385   174.1277 </r>
       <r>    -1.0542    16.1249   174.6523 </r>
       <r>    -1.0217    35.7768   175.8162 </r>
       <r>    -0.9892    39.6852   177.1073 </r>
       <r>    -0.9566    24.8735   177.9165 </r>
       <r>    -0.9241    18.5675   178.5206 </r>
       <r>    -0.8916    22.3140   179.2465 </r>
       <r>    -0.8590    16.5074   179.7835 </r>
       <r>    -0.8265     5.6986   179.9689 </r>
       <r>    -0.7940     0.8927   179.9980 </r>
       <r>    -0.7614     0.1430   180.0026 </r>
       <r>    -0.7289     1.2695   180.0439 </r>
       <r>    -0.6964     9.0151   180.3372 </r>
       <r>    -0.6638    29.2062   181.2874 </r>
       <r>    -0.6313    43.3234   182.6968 </r>
       <r>    -0.5988    29.4806   183.6559 </r>
       <r>    -0.5662     9.1857   183.9548 </r>
       <r>    -0.5337     1.3039   183.9972 </r>
       <r>    -0.5012     0.0837   183.9999 </r>
       <r>    -0.4686     0.0024   184.0000 </r>
       <r>    -0.4361     0.0000   184.0000 </r>
       <r>    -0.4036     0.0000   184.0000 </r>
       <r>    -0.3710     0.0000   184.0000 </r>
       <r>    -0.3385     0.0000   184.0000 </r>
       <r>    -0.3060     0.0000   184.0000 </r>
       <r>    -0.2734     0.0000   184.0000 </r>
       <r>    -0.2409     0.0000   184.0000 </r>
       <r>    -0.2084     0.0000   184.0000 </r>
       <r>    -0.1758     0.0000   184.0000 </r>
       <r>    -0.1433     0.0000   184.0000 </r>
      </set>
     </set>
    </array>
   </total>
  </dos>
 </calculation>
 <structure name="finalpos" >
  <crystal>
   <varray name="basis" >
    <v>      26.58256484       0.00000000       0.00000000 </v>
    <v>       0.00000000      26.24339799       0.00000000 </v>
    <v>       0.00000000       0.00000000      24.37629473 </v>
   </varray>
   <i name="volume">  17005.31343267 </i>
   <varray name="rec_basis" >
    <v>       0.03761864       0.00000000       0.00000000 </v>
    <v>       0.00000000       0.03810482       0.00000000 </v>
    <v>       0.00000000       0.00000000       0.04102346 </v>
   </varray>
  </crystal>
  <varray name="positions" >
   <v>       0.59783794       0.75570851       0.64485100 </v>
   <v>       0.54983007       0.52344764       0.49827367 </v>
   <v>       0.73598746       0.52479233       0.60551729 </v>
   <v>       0.49503479       0.61323485       0.51467419 </v>
   <v>       0.70146595       0.60227451       0.53696126 </v>
   <v>       0.67855708       0.69376178       0.68816498 </v>
   <v>       0.74710361       0.62968298       0.63728586 </v>
   <v>       0.54334406       0.68943232       0.57235262 </v>
   <v>       0.63994156       0.51731806       0.55440110 </v>
   <v>       0.58105148       0.65423349       0.67219808 </v>
   <v>       0.60235591       0.61689500       0.50634249 </v>
   <v>       0.65431743       0.58447800       0.64473372 </v>
   <v>       0.55709656       0.57717902       0.60008227 </v>
   <v>       0.64946617       0.68288647       0.58087681 </v>
  </varray>
 </structure>
</modeling>
