BLACK                                   
           1
    26.582565    0.000000    0.000000
     0.000000   26.243398    0.000000
     0.000000    0.000000   24.376295
   Ag
  14
Direct configuration=     1
   0.59899559  0.75617673  0.64441453
   0.55001868  0.52301278  0.50037105
   0.73564963  0.52405267  0.60587691
   0.49909496  0.61560123  0.51080263
   0.70188770  0.60601328  0.53965742
   0.68189680  0.69756709  0.67990181
   0.74672211  0.62470053  0.64421736
   0.53612292  0.68843593  0.58101028
   0.64159106  0.51827316  0.55281057
   0.58575126  0.65285471  0.67417517
   0.60385787  0.61577643  0.50213455
   0.65272211  0.58074478  0.64499141
   0.55748244  0.57865221  0.59917791
   0.64159693  0.68346343  0.57717370
Direct configuration=     2
   0.59869254  0.75630608  0.64454142
   0.54993240  0.52289971  0.50019466
   0.73569962  0.52401066  0.60577934
   0.49884168  0.61556386  0.51080519
   0.70186200  0.60591712  0.53989293
   0.68189586  0.69757753  0.68011374
   0.74686007  0.62463354  0.64410869
   0.53621173  0.68846857  0.58088022
   0.64151529  0.51825021  0.55267551
   0.58554230  0.65312019  0.67429347
   0.60390969  0.61565097  0.50228182
   0.65312060  0.58078934  0.64502925
   0.55745631  0.57875954  0.59906419
   0.64184998  0.68337767  0.57705490
Direct configuration=     3
   0.59794993  0.75662304  0.64485235
   0.54972097  0.52262263  0.49976240
   0.73582211  0.52390770  0.60554024
   0.49822102  0.61547228  0.51081147
   0.70179901  0.60568149  0.54047004
   0.68189355  0.69760312  0.68063307
   0.74719813  0.62446937  0.64384238
   0.53642937  0.68854854  0.58056151
   0.64132960  0.51819398  0.55234453
   0.58503023  0.65377074  0.67458336
   0.60403668  0.61534351  0.50264268
   0.65409712  0.58089852  0.64512199
   0.55739227  0.57902254  0.59878551
   0.64247009  0.68316750  0.57676379
Direct configuration=     4
   0.59757273  0.75661873  0.64496730
   0.54956604  0.52256195  0.49952353
   0.73597489  0.52367079  0.60530463
   0.49793276  0.61534326  0.51085976
   0.70192243  0.60540348  0.54068061
   0.68174611  0.69751361  0.68078334
   0.74759572  0.62457009  0.64375517
   0.53664265  0.68857053  0.58023360
   0.64117027  0.51817385  0.55222379
   0.58495464  0.65393229  0.67452217
   0.60391328  0.61510299  0.50276487
   0.65407978  0.58123854  0.64523834
   0.55759645  0.57925697  0.59881664
   0.64272232  0.68336789  0.57704158
Direct configuration=     5
   0.59708086  0.75661312  0.64511720
   0.54936401  0.52248281  0.49921204
   0.73617412  0.52336186  0.60499739
   0.49755685  0.61517500  0.51092273
   0.70208339  0.60504094  0.54095518
   0.68155385  0.69739690  0.68097931
   0.74811418  0.62470143  0.64364145
   0.53692077  0.68859921  0.57980600
   0.64096250  0.51814761  0.55206634
   0.58485606  0.65414295  0.67444237
   0.60375237  0.61478935  0.50292420
   0.65405718  0.58168193  0.64539006
   0.55786270  0.57956268  0.59885723
   0.64305123  0.68362920  0.57740381
Direct configuration=     6
   0.59609712  0.75660188  0.64541701
   0.54895994  0.52232453  0.49858907
   0.73657258  0.52274398  0.60438290
   0.49680505  0.61483849  0.51104867
   0.70240529  0.60431586  0.54150434
   0.68116932  0.69716347  0.68137123
   0.74915111  0.62496411  0.64341401
   0.53747701  0.68865656  0.57895080
   0.64054696  0.51809513  0.55175144
   0.58465891  0.65456427  0.67428278
   0.60343054  0.61416206  0.50324286
   0.65401197  0.58256872  0.64569351
   0.55839521  0.58017408  0.59893842
   0.64370906  0.68415182  0.57812829
Direct configuration=     7
   0.59671529  0.75660894  0.64522862
   0.54921385  0.52242399  0.49898054
   0.73632219  0.52313225  0.60476904
   0.49727747  0.61504995  0.51096953
   0.70220301  0.60477149  0.54115926
   0.68141095  0.69731015  0.68112495
   0.74849952  0.62479904  0.64355693
   0.53712747  0.68862052  0.57948820
   0.64080808  0.51812811  0.55194932
   0.58478280  0.65429952  0.67438307
   0.60363277  0.61455624  0.50304262
   0.65404038  0.58201148  0.64550283
   0.55806059  0.57978989  0.59888740
   0.64329569  0.68382341  0.57767304
Direct configuration=     8
   0.59628346  0.75661327  0.64540359
   0.54891149  0.52242803  0.49877230
   0.73631901  0.52295648  0.60456046
   0.49710199  0.61477863  0.51122015
   0.70213041  0.60462916  0.54135233
   0.68133383  0.69703291  0.68145466
   0.74876623  0.62488326  0.64340715
   0.53746903  0.68856637  0.57878716
   0.64068123  0.51817437  0.55204217
   0.58459446  0.65443870  0.67438410
   0.60371046  0.61466940  0.50333244
   0.65434617  0.58246865  0.64549257
   0.55816415  0.57990685  0.59886738
   0.64357815  0.68377890  0.57763888
Direct configuration=     9
   0.59585201  0.75661760  0.64557840
   0.54860940  0.52243207  0.49856424
   0.73631582  0.52278086  0.60435207
   0.49692667  0.61450754  0.51147054
   0.70205788  0.60448695  0.54154522
   0.68125678  0.69675591  0.68178408
   0.74903271  0.62496740  0.64325750
   0.53781028  0.68851226  0.57808674
   0.64055450  0.51822058  0.55213494
   0.58440629  0.65457776  0.67438513
   0.60378807  0.61478245  0.50362201
   0.65465168  0.58292542  0.64548232
   0.55826761  0.58002371  0.59884737
   0.64386036  0.68373443  0.57760475
Direct configuration=    10
   0.59568331  0.75661930  0.64564676
   0.54849127  0.52243365  0.49848289
   0.73631458  0.52271219  0.60427058
   0.49685811  0.61440154  0.51156846
   0.70202951  0.60443134  0.54162065
   0.68122665  0.69664760  0.68191290
   0.74913692  0.62500031  0.64319898
   0.53794372  0.68849111  0.57781286
   0.64050495  0.51823865  0.55217121
   0.58433271  0.65463214  0.67438554
   0.60381842  0.61482666  0.50373524
   0.65477115  0.58310403  0.64547831
   0.55830807  0.58006941  0.59883955
   0.64397071  0.68371704  0.57759141
Direct configuration=    11
   0.59552824  0.75636738  0.64566011
   0.54847860  0.52258659  0.49854233
   0.73610087  0.52268108  0.60423027
   0.49674802  0.61413221  0.51183495
   0.70210672  0.60446410  0.54147233
   0.68105115  0.69624133  0.68211920
   0.74940033  0.62508987  0.64304258
   0.53845740  0.68846462  0.57711573
   0.64023818  0.51831074  0.55244394
   0.58403755  0.65462649  0.67427044
   0.60379970  0.61512209  0.50380462
   0.65498320  0.58352204  0.64537629
   0.55830102  0.57976831  0.59899355
   0.64415907  0.68394813  0.57780899
Direct configuration=    12
   0.59536848  0.75610783  0.64567387
   0.54846554  0.52274416  0.49860357
   0.73588069  0.52264901  0.60418874
   0.49663460  0.61385472  0.51210952
   0.70218628  0.60449786  0.54131951
   0.68087033  0.69582276  0.68233174
   0.74967172  0.62518214  0.64288145
   0.53898664  0.68843733  0.57639747
   0.63996334  0.51838500  0.55272492
   0.58373346  0.65462068  0.67415185
   0.60378040  0.61542646  0.50387611
   0.65520168  0.58395271  0.64527117
   0.55829377  0.57945808  0.59915223
   0.64435313  0.68418623  0.57803316
Direct configuration=    13
   0.59504896  0.75558872  0.64570138
   0.54843943  0.52305931  0.49872606
   0.73544034  0.52258489  0.60410568
   0.49640777  0.61329973  0.51265867
   0.70234538  0.60456536  0.54101387
   0.68050869  0.69498560  0.68275684
   0.75021450  0.62536668  0.64255918
   0.54004513  0.68838276  0.57496097
   0.63941366  0.51853354  0.55328690
   0.58312527  0.65460905  0.67391468
   0.60374180  0.61603522  0.50401908
   0.65563863  0.58481405  0.64506094
   0.55827926  0.57883763  0.59946957
   0.64474126  0.68466242  0.57848150
Direct configuration=    14
   0.59520572  0.75584340  0.64568788
   0.54845224  0.52290470  0.49866597
   0.73565638  0.52261635  0.60414643
   0.49651906  0.61357201  0.51238925
   0.70226732  0.60453224  0.54116382
   0.68068611  0.69539632  0.68254828
   0.74994821  0.62527614  0.64271729
   0.53952583  0.68840953  0.57566573
   0.63968334  0.51846067  0.55301119
   0.58342365  0.65461475  0.67403104
   0.60376074  0.61573656  0.50394893
   0.65542426  0.58439147  0.64516408
   0.55828638  0.57914203  0.59931388
   0.64455084  0.68442879  0.57826154
Direct configuration=    15
   0.59531311  0.75587902  0.64566908
   0.54875569  0.52287653  0.49865590
   0.73535037  0.52276159  0.60424447
   0.49625791  0.61343389  0.51273393
   0.70218189  0.60473971  0.54081516
   0.68062618  0.69485799  0.68296415
   0.75022157  0.62531087  0.64239597
   0.54001545  0.68840455  0.57498469
   0.63953925  0.51861297  0.55341256
   0.58289703  0.65413780  0.67376039
   0.60357788  0.61610451  0.50423963
   0.65528519  0.58478613  0.64505280
   0.55827025  0.57886954  0.59958632
   0.64509831  0.68454989  0.57820027
Direct configuration=    16
   0.59535314  0.75589230  0.64566207
   0.54886882  0.52286603  0.49865215
   0.73523629  0.52281573  0.60428102
   0.49616055  0.61338239  0.51286243
   0.70215005  0.60481705  0.54068517
   0.68060383  0.69465729  0.68311919
   0.75032349  0.62532382  0.64227618
   0.54019799  0.68840269  0.57473079
   0.63948553  0.51866975  0.55356220
   0.58270069  0.65395998  0.67365949
   0.60350970  0.61624169  0.50434801
   0.65523334  0.58493326  0.64501131
   0.55826424  0.57876795  0.59968788
   0.64530242  0.68459504  0.57817743
Direct configuration=    17
   0.59543322  0.75591885  0.64564805
   0.54909508  0.52284502  0.49864464
   0.73500812  0.52292402  0.60435412
   0.49596583  0.61327940  0.51311943
   0.70208635  0.60497174  0.54042520
   0.68055914  0.69425590  0.68342927
   0.75052731  0.62534971  0.64203660
   0.54056307  0.68839897  0.57422298
   0.63937810  0.51878331  0.55386147
   0.58230803  0.65360435  0.67345769
   0.60337336  0.61651605  0.50456476
   0.65512964  0.58522753  0.64492833
   0.55825221  0.57856477  0.59989102
   0.64571062  0.68468534  0.57813175
Direct configuration=    18
   0.59538286  0.75590215  0.64565687
   0.54895277  0.52285823  0.49864936
   0.73515162  0.52285592  0.60430815
   0.49608830  0.61334418  0.51295779
   0.70212641  0.60487445  0.54058871
   0.68058725  0.69450835  0.68323425
   0.75039912  0.62533342  0.64218728
   0.54033346  0.68840131  0.57454236
   0.63944567  0.51871189  0.55367325
   0.58255499  0.65382802  0.67358461
   0.60345911  0.61634349  0.50442844
   0.65519486  0.58504245  0.64498052
   0.55825977  0.57869256  0.59976326
   0.64545389  0.68462855  0.57816048
Direct configuration=    19
   0.59566280  0.75577791  0.64560190
   0.54927883  0.52285867  0.49861274
   0.73494972  0.52308665  0.60444632
   0.49582115  0.61318560  0.51322616
   0.70207854  0.60490671  0.54027143
   0.68042282  0.69394045  0.68360219
   0.75040798  0.62534045  0.64182974
   0.54082187  0.68852363  0.57410722
   0.63953157  0.51886860  0.55398351
   0.58210258  0.65378374  0.67340140
   0.60310978  0.61651835  0.50473008
   0.65524318  0.58525767  0.64490373
   0.55799247  0.57837442  0.59975504
   0.64596678  0.68490212  0.57824386
Direct configuration=    20
   0.59590538  0.75567025  0.64555426
   0.54956137  0.52285905  0.49858101
   0.73477476  0.52328660  0.60456605
   0.49558965  0.61304818  0.51345871
   0.70203705  0.60493467  0.53999649
   0.68028034  0.69344834  0.68392103
   0.75041566  0.62534654  0.64151992
   0.54124510  0.68862964  0.57373016
   0.63960601  0.51900439  0.55425238
   0.58171055  0.65374537  0.67324264
   0.60280707  0.61666987  0.50499147
   0.65528506  0.58544417  0.64483719
   0.55776083  0.57809874  0.59974791
   0.64641123  0.68513918  0.57831612
Direct configuration=    21
   0.59601650  0.75562093  0.64553244
   0.54969080  0.52285922  0.49856647
   0.73469462  0.52337819  0.60462090
   0.49548360  0.61298523  0.51356524
   0.70201805  0.60494747  0.53987054
   0.68021507  0.69322291  0.68406708
   0.75041917  0.62534932  0.64137799
   0.54143898  0.68867819  0.57355743
   0.63964011  0.51906660  0.55437554
   0.58153097  0.65372779  0.67316991
   0.60266840  0.61673928  0.50511121
   0.65530424  0.58552960  0.64480670
   0.55765472  0.57797245  0.59974465
   0.64661483  0.68524777  0.57834921
Direct configuration=    22
   0.59630145  0.75551186  0.64554261
   0.54977445  0.52289156  0.49844024
   0.73492364  0.52339872  0.60479711
   0.49537476  0.61287376  0.51365559
   0.70189847  0.60485169  0.53964820
   0.68002236  0.69293199  0.68433133
   0.75029306  0.62550232  0.64120249
   0.54157477  0.68875487  0.57349706
   0.63976755  0.51899259  0.55427007
   0.58144174  0.65401119  0.67300939
   0.60264870  0.61680524  0.50536250
   0.65508138  0.58567067  0.64485653
   0.55740154  0.57781720  0.59974804
   0.64688620  0.68531133  0.57835416
Direct configuration=    23
   0.59657944  0.75540545  0.64555253
   0.54985606  0.52292311  0.49831709
   0.73514708  0.52341876  0.60496901
   0.49526857  0.61276500  0.51374375
   0.70178181  0.60475824  0.53943129
   0.67983436  0.69264816  0.68458913
   0.75017001  0.62565157  0.64103127
   0.54170724  0.68882968  0.57343816
   0.63989188  0.51892038  0.55416716
   0.58135469  0.65428766  0.67285278
   0.60262949  0.61686959  0.50560766
   0.65486395  0.58580829  0.64490513
   0.55715454  0.57766573  0.59975136
   0.64715094  0.68537334  0.57835898
Direct configuration=    24
   0.59692196  0.75564683  0.64560243
   0.54990935  0.52300845  0.49814694
   0.73535503  0.52359318  0.60509438
   0.49522526  0.61271560  0.51381150
   0.70174774  0.60445583  0.53935170
   0.67969326  0.69243990  0.68495171
   0.74993683  0.62580063  0.64080879
   0.54170288  0.68886090  0.57332308
   0.64006889  0.51881515  0.55403642
   0.58115424  0.65438227  0.67263102
   0.60253936  0.61686756  0.50585316
   0.65459229  0.58577282  0.64478858
   0.55708691  0.57761071  0.59995289
   0.64745609  0.68535514  0.57836271
Direct configuration=    25
   0.59707881  0.75575737  0.64562529
   0.54993375  0.52304753  0.49806902
   0.73545025  0.52367305  0.60515178
   0.49520542  0.61269298  0.51384253
   0.70173214  0.60431734  0.53931525
   0.67962864  0.69234453  0.68511775
   0.74983004  0.62586888  0.64070691
   0.54170088  0.68887520  0.57327038
   0.64014995  0.51876697  0.55397655
   0.58106245  0.65442560  0.67252947
   0.60249809  0.61686664  0.50596558
   0.65446789  0.58575657  0.64473521
   0.55705594  0.57758551  0.60004519
   0.64759583  0.68534680  0.57836442
Direct configuration=    26
   0.59739251  0.75597845  0.64567099
   0.54998255  0.52312570  0.49791318
   0.73564070  0.52383280  0.60526660
   0.49516575  0.61264773  0.51390458
   0.70170094  0.60404037  0.53924236
   0.67949941  0.69215379  0.68544983
   0.74961647  0.62600540  0.64050315
   0.54169688  0.68890379  0.57316498
   0.64031208  0.51867059  0.55385680
   0.58087886  0.65451225  0.67232637
   0.60241554  0.61686478  0.50619042
   0.65421908  0.58572408  0.64462846
   0.55699400  0.57753511  0.60022977
   0.64787530  0.68533013  0.57836784
Direct configuration=    27
   0.59725704  0.75588298  0.64565125
   0.54996147  0.52309194  0.49798048
   0.73555846  0.52376382  0.60521702
   0.49518288  0.61266727  0.51387778
   0.70171441  0.60415998  0.53927384
   0.67955521  0.69223616  0.68530643
   0.74970869  0.62594645  0.64059114
   0.54169861  0.68889145  0.57321050
   0.64024207  0.51871221  0.55390851
   0.58095814  0.65447483  0.67241408
   0.60245119  0.61686558  0.50609332
   0.65432653  0.58573811  0.64467455
   0.55702075  0.57755688  0.60015006
   0.64775462  0.68533733  0.57836636
Direct configuration=    28
   0.59751734  0.75595999  0.64557110
   0.55002799  0.52321527  0.49792418
   0.73561498  0.52393058  0.60526979
   0.49518941  0.61265292  0.51397035
   0.70176014  0.60393869  0.53922802
   0.67946610  0.69216336  0.68552899
   0.74940127  0.62613901  0.64041277
   0.54177674  0.68903981  0.57313457
   0.64020999  0.51850917  0.55380531
   0.58076111  0.65465771  0.67231132
   0.60234558  0.61682646  0.50629630
   0.65441029  0.58557472  0.64456074
   0.55702722  0.57741886  0.60013835
   0.64788193  0.68529843  0.57856351
Direct configuration=    29
   0.59753034  0.75596383  0.64556710
   0.55003131  0.52322143  0.49792137
   0.73561780  0.52393891  0.60527243
   0.49518974  0.61265220  0.51397497
   0.70176243  0.60392765  0.53922574
   0.67946165  0.69215973  0.68554011
   0.74938592  0.62614862  0.64040387
   0.54178064  0.68904721  0.57313078
   0.64020839  0.51849903  0.55380016
   0.58075127  0.65466684  0.67230619
   0.60234030  0.61682450  0.50630644
   0.65441447  0.58556656  0.64455505
   0.55702754  0.57741197  0.60013777
   0.64788828  0.68529649  0.57857336
Direct configuration=    30
   0.59764378  0.75597106  0.64547792
   0.55003745  0.52324363  0.49789922
   0.73562056  0.52394719  0.60528585
   0.49517989  0.61269907  0.51409645
   0.70170911  0.60390498  0.53910690
   0.67934848  0.69223102  0.68565672
   0.74925521  0.62642904  0.64027666
   0.54188479  0.68919721  0.57305329
   0.64015273  0.51826960  0.55378630
   0.58076266  0.65465853  0.67228071
   0.60240183  0.61686965  0.50641314
   0.65439777  0.58546708  0.64452090
   0.55707419  0.57730959  0.60013995
   0.64792163  0.68512734  0.57872131
Direct configuration=    31
   0.59798409  0.75599274  0.64521035
   0.55005589  0.52331024  0.49783278
   0.73562884  0.52397204  0.60532614
   0.49515034  0.61283968  0.51446088
   0.70154915  0.60383696  0.53875040
   0.67900897  0.69244489  0.68600656
   0.74886310  0.62727028  0.63989506
   0.54219722  0.68964720  0.57282082
   0.63998573  0.51758130  0.55374473
   0.58079683  0.65463361  0.67220427
   0.60258642  0.61700508  0.50673323
   0.65434765  0.58516861  0.64441846
   0.55721415  0.57700246  0.60014648
   0.64802169  0.68461988  0.57916517
Direct configuration=    32
   0.59782809  0.75598280  0.64533300
   0.55004744  0.52327970  0.49786324
   0.73562505  0.52396065  0.60530767
   0.49516389  0.61277522  0.51429383
   0.70162247  0.60386814  0.53891382
   0.67916460  0.69234685  0.68584619
   0.74904284  0.62688466  0.64006999
   0.54205400  0.68944093  0.57292738
   0.64006228  0.51789681  0.55376379
   0.58078117  0.65464504  0.67223931
   0.60250181  0.61694300  0.50658650
   0.65437062  0.58530542  0.64446542
   0.55714999  0.57714324  0.60014348
   0.64797582  0.68485249  0.57896171
Direct configuration=    33
   0.59787963  0.75599483  0.64525648
   0.55002745  0.52331086  0.49785975
   0.73559843  0.52400049  0.60529942
   0.49519154  0.61283702  0.51441279
   0.70162877  0.60377845  0.53885970
   0.67909148  0.69244897  0.68596956
   0.74893983  0.62706168  0.63992605
   0.54211173  0.68951809  0.57285264
   0.64007400  0.51778756  0.55380219
   0.58079298  0.65457633  0.67219312
   0.60248220  0.61694324  0.50659583
   0.65436839  0.58523023  0.64445013
   0.55716323  0.57709915  0.60014126
   0.64804042  0.68473806  0.57909642
Direct configuration=    34
   0.59790644  0.75600109  0.64521665
   0.55001705  0.52332708  0.49785793
   0.73558458  0.52402123  0.60529513
   0.49520594  0.61286918  0.51447469
   0.70163205  0.60373178  0.53883154
   0.67905343  0.69250211  0.68603376
   0.74888622  0.62715380  0.63985115
   0.54214176  0.68955825  0.57281374
   0.64008010  0.51773070  0.55382217
   0.58079913  0.65454058  0.67216908
   0.60247199  0.61694336  0.50660068
   0.65436722  0.58519111  0.64444218
   0.55717012  0.57707620  0.60014011
   0.64807404  0.68467851  0.57916651
Direct configuration=    35
   0.59796008  0.75601361  0.64513701
   0.54999625  0.52335950  0.49785430
   0.73555687  0.52406270  0.60528653
   0.49523472  0.61293349  0.51459850
   0.70163861  0.60363844  0.53877522
   0.67897733  0.69260840  0.68616216
   0.74877901  0.62733803  0.63970134
   0.54220184  0.68963856  0.57273596
   0.64009229  0.51761699  0.55386213
   0.58081143  0.65446907  0.67212101
   0.60245159  0.61694361  0.50661039
   0.65436489  0.58511285  0.64442627
   0.55718389  0.57703031  0.60013780
   0.64814127  0.68455940  0.57930671
Direct configuration=    36
   0.59806735  0.75603865  0.64497772
   0.54995464  0.52342436  0.49784704
   0.73550147  0.52414563  0.60526935
   0.49529229  0.61306212  0.51484611
   0.70165172  0.60345176  0.53866258
   0.67882514  0.69282096  0.68641895
   0.74856459  0.62770650  0.63940173
   0.54232198  0.68979919  0.57258038
   0.64011668  0.51738957  0.55394206
   0.58083602  0.65432606  0.67202487
   0.60241077  0.61694411  0.50662980
   0.65436024  0.58495634  0.64439445
   0.55721144  0.57693852  0.60013317
   0.64827574  0.68432120  0.57958710
Direct configuration=    37
   0.59802633  0.75600361  0.64490233
   0.54995392  0.52345253  0.49790693
   0.73552692  0.52416342  0.60528395
   0.49530044  0.61313570  0.51491158
   0.70161098  0.60329063  0.53853637
   0.67881544  0.69300318  0.68666155
   0.74839881  0.62787340  0.63919741
   0.54245849  0.68984089  0.57258958
   0.64008461  0.51741517  0.55397980
   0.58083373  0.65426746  0.67192800
   0.60239719  0.61688999  0.50657309
   0.65437083  0.58489027  0.64443176
   0.55720658  0.57689486  0.60015362
   0.64840581  0.68420384  0.57965936
Direct configuration=    38
   0.59790327  0.75589848  0.64467615
   0.54995176  0.52353706  0.49808658
   0.73560327  0.52421680  0.60532775
   0.49532489  0.61335644  0.51510797
   0.70148875  0.60280724  0.53815772
   0.67878634  0.69354983  0.68738934
   0.74790146  0.62837411  0.63858445
   0.54286802  0.68996601  0.57261719
   0.63998839  0.51749197  0.55409303
   0.58082686  0.65409165  0.67163739
   0.60235643  0.61672764  0.50640295
   0.65440263  0.58469206  0.64454372
   0.55719199  0.57676390  0.60021495
   0.64879603  0.68385176  0.57987612
Direct configuration=    39
   0.59794675  0.75593562  0.64475606
   0.54995252  0.52350720  0.49802311
   0.73557629  0.52419794  0.60531228
   0.49531625  0.61327845  0.51503858
   0.70153193  0.60297803  0.53829150
   0.67879662  0.69335670  0.68713221
   0.74807717  0.62819721  0.63880101
   0.54272333  0.68992181  0.57260743
   0.64002238  0.51746484  0.55405303
   0.58082928  0.65415377  0.67174006
   0.60237083  0.61678500  0.50646306
   0.65439139  0.58476209  0.64450416
   0.55719715  0.57681017  0.60019328
   0.64865816  0.68397615  0.57979954
Direct configuration=    40
   0.59787643  0.75588932  0.64475075
   0.54988842  0.52347888  0.49806597
   0.73568530  0.52420888  0.60539851
   0.49526079  0.61333688  0.51501967
   0.70145078  0.60277279  0.53799625
   0.67869520  0.69352641  0.68731097
   0.74787267  0.62844329  0.63858071
   0.54289474  0.68991357  0.57253210
   0.63996535  0.51750076  0.55408324
   0.58096597  0.65420546  0.67175089
   0.60240862  0.61679852  0.50641380
   0.65438096  0.58471051  0.64462264
   0.55715710  0.57674723  0.60022122
   0.64888772  0.68379245  0.57996861
Direct configuration=    41
   0.59784712  0.75587003  0.64474853
   0.54986170  0.52346707  0.49808383
   0.73573074  0.52421344  0.60543444
   0.49523768  0.61336124  0.51501178
   0.70141696  0.60268726  0.53787321
   0.67865294  0.69359713  0.68738547
   0.74778744  0.62854585  0.63848889
   0.54296618  0.68991014  0.57250070
   0.63994159  0.51751574  0.55409584
   0.58102293  0.65422701  0.67175540
   0.60242437  0.61680415  0.50639327
   0.65437662  0.58468902  0.64467202
   0.55714041  0.57672100  0.60023287
   0.64898339  0.68371590  0.58003907
Direct configuration=    42
   0.59781278  0.75590917  0.64480352
   0.54976254  0.52346399  0.49807145
   0.73578694  0.52432136  0.60552593
   0.49521209  0.61334784  0.51494855
   0.70148227  0.60261324  0.53773282
   0.67865887  0.69358133  0.68740911
   0.74765505  0.62869256  0.63835490
   0.54304316  0.68978985  0.57236497
   0.63994788  0.51747778  0.55412315
   0.58107301  0.65425150  0.67180686
   0.60233421  0.61685526  0.50644892
   0.65437673  0.58463650  0.64470341
   0.55713552  0.57679054  0.60022957
   0.64910901  0.68359406  0.58019216
Direct configuration=    43
   0.59771818  0.75601695  0.64495496
   0.54948944  0.52345549  0.49803738
   0.73594174  0.52461859  0.60577788
   0.49514164  0.61331094  0.51477441
   0.70166212  0.60240938  0.53734619
   0.67867518  0.69353780  0.68747423
   0.74729045  0.62909664  0.63798587
   0.54325517  0.68945856  0.57199113
   0.63996523  0.51737323  0.55419838
   0.58121092  0.65431894  0.67194858
   0.60208590  0.61699600  0.50660219
   0.65437706  0.58449187  0.64478985
   0.55712206  0.57698206  0.60022049
   0.64945498  0.68325852  0.58061379
Direct configuration=    44
   0.59777712  0.75594979  0.64486060
   0.54965961  0.52346078  0.49805861
   0.73584528  0.52443338  0.60562088
   0.49518554  0.61333393  0.51488292
   0.70155005  0.60253641  0.53758711
   0.67866502  0.69356492  0.68743365
   0.74751764  0.62884485  0.63821582
   0.54312306  0.68966500  0.57222408
   0.63995442  0.51743838  0.55415150
   0.58112498  0.65427691  0.67186027
   0.60224063  0.61690830  0.50650668
   0.65437686  0.58458200  0.64473599
   0.55713045  0.57686272  0.60022615
   0.64923940  0.68346760  0.58035106
Direct configuration=    45
   0.59775149  0.75592629  0.64489587
   0.54964127  0.52346997  0.49809716
   0.73588139  0.52455305  0.60568002
   0.49512359  0.61327936  0.51480019
   0.70155905  0.60247996  0.53744887
   0.67867970  0.69359043  0.68753383
   0.74744520  0.62900326  0.63804437
   0.54323395  0.68957670  0.57217405
   0.63991277  0.51742084  0.55416935
   0.58112599  0.65431190  0.67189894
   0.60223556  0.61692928  0.50656994
   0.65434886  0.58451210  0.64473947
   0.55712711  0.57693668  0.60021279
   0.64932415  0.68333513  0.58045048
Direct configuration=    46
   0.59774515  0.75592049  0.64490458
   0.54963674  0.52347223  0.49810668
   0.73589030  0.52458261  0.60569462
   0.49510829  0.61326588  0.51477975
   0.70156127  0.60246602  0.53741473
   0.67868332  0.69359673  0.68755857
   0.74742731  0.62904239  0.63800202
   0.54326133  0.68955490  0.57216170
   0.63990249  0.51741651  0.55417376
   0.58112623  0.65432054  0.67190849
   0.60223431  0.61693447  0.50658556
   0.65434195  0.58449483  0.64474032
   0.55712629  0.57695494  0.60020949
   0.64934508  0.68330242  0.58047503
Direct configuration=    47
   0.59773249  0.75590888  0.64492200
   0.54962768  0.52347677  0.49812572
   0.73590814  0.52464172  0.60572383
   0.49507770  0.61323893  0.51473889
   0.70156571  0.60243814  0.53734646
   0.67869057  0.69360933  0.68760805
   0.74739153  0.62912063  0.63791734
   0.54331610  0.68951129  0.57213699
   0.63988192  0.51740785  0.55418258
   0.58112673  0.65433783  0.67192759
   0.60223181  0.61694483  0.50661681
   0.65432812  0.58446031  0.64474204
   0.55712464  0.57699147  0.60020289
   0.64938694  0.68323699  0.58052414
Direct configuration=    48
   0.59774517  0.75583997  0.64490295
   0.54968883  0.52347743  0.49817333
   0.73591467  0.52466403  0.60568503
   0.49503312  0.61322134  0.51471881
   0.70152698  0.60240387  0.53731773
   0.67868293  0.69366679  0.68770806
   0.74736351  0.62917089  0.63782387
   0.54334714  0.68955634  0.57219080
   0.63988432  0.51741101  0.55419334
   0.58111134  0.65433508  0.67195351
   0.60229070  0.61690219  0.50655144
   0.65430583  0.58447257  0.64473841
   0.55709879  0.57700072  0.60018909
   0.64939674  0.68320275  0.58056896
Direct configuration=    49
   0.59774718  0.75582905  0.64489993
   0.54969852  0.52347753  0.49818088
   0.73591571  0.52466757  0.60567888
   0.49502605  0.61321856  0.51471563
   0.70152084  0.60239844  0.53731318
   0.67868172  0.69367589  0.68772390
   0.74735908  0.62917885  0.63780906
   0.54335206  0.68956348  0.57219933
   0.63988470  0.51741150  0.55419504
   0.58110890  0.65433464  0.67195762
   0.60230003  0.61689543  0.50654108
   0.65430229  0.58447451  0.64473783
   0.55709470  0.57700219  0.60018690
   0.64939829  0.68319732  0.58057607
Direct configuration=    50
   0.59775119  0.75580721  0.64489389
   0.54971790  0.52347774  0.49819597
   0.73591778  0.52467464  0.60566658
   0.49501192  0.61321299  0.51470926
   0.70150856  0.60238758  0.53730407
   0.67867930  0.69369410  0.68775560
   0.74735020  0.62919478  0.63777944
   0.54336189  0.68957775  0.57221638
   0.63988546  0.51741250  0.55419845
   0.58110403  0.65433377  0.67196583
   0.60231870  0.61688192  0.50652037
   0.65429523  0.58447839  0.64473668
   0.55708650  0.57700512  0.60018252
   0.64940140  0.68318647  0.58059027
Direct configuration=    51
   0.59775923  0.75576352  0.64488182
   0.54975667  0.52347816  0.49822615
   0.73592192  0.52468878  0.60564199
   0.49498366  0.61320184  0.51469654
   0.70148401  0.60236586  0.53728587
   0.67867446  0.69373052  0.68781899
   0.74733244  0.62922663  0.63772019
   0.54338157  0.68960631  0.57225049
   0.63988698  0.51741450  0.55420527
   0.58109427  0.65433203  0.67198226
   0.60235602  0.61685489  0.50647893
   0.65428110  0.58448616  0.64473438
   0.55707012  0.57701098  0.60017377
   0.64940761  0.68316477  0.58061869
Direct configuration=    52
   0.59778112  0.75574900  0.64487013
   0.54980934  0.52346842  0.49826062
   0.73593181  0.52470895  0.60558395
   0.49499099  0.61321932  0.51470271
   0.70146406  0.60234069  0.53722305
   0.67866451  0.69376178  0.68794608
   0.74725527  0.62930654  0.63761760
   0.54336211  0.68957565  0.57226668
   0.63992043  0.51738748  0.55425006
   0.58108577  0.65427083  0.67203119
   0.60237236  0.61683579  0.50641059
   0.65427522  0.58452116  0.64473837
   0.55704802  0.57706565  0.60015467
   0.64942905  0.68311371  0.58065963
Direct configuration=    53
   0.59778286  0.75574785  0.64486920
   0.54981352  0.52346764  0.49826336
   0.73593259  0.52471055  0.60557934
   0.49499157  0.61322071  0.51470320
   0.70146248  0.60233870  0.53721807
   0.67866372  0.69376426  0.68795616
   0.74724915  0.62931288  0.63760946
   0.54336057  0.68957322  0.57226796
   0.63992309  0.51738534  0.55425361
   0.58108509  0.65426597  0.67203507
   0.60237366  0.61683428  0.50640516
   0.65427475  0.58452394  0.64473869
   0.55704627  0.57706998  0.60015316
   0.64943075  0.68310966  0.58066288
Direct configuration=    54
   0.59778634  0.75574555  0.64486735
   0.54982187  0.52346610  0.49826883