  13  13   0   0
  0.1311026E+04  0.2534036E-08  0.2660423E-08  0.2528081E-08  0.5000000E-15
  1.000000000000000E-004
  CAR 
 BLACK                                   
     -0.05686740     -9.96990661  301     -3.82175989      1.00000000
     -9.970  0.0000E+00  0.0000E+00
     -9.937  0.0000E+00  0.0000E+00
     -9.904  0.0000E+00  0.0000E+00
     -9.871  0.0000E+00  0.0000E+00
     -9.838  0.0000E+00  0.0000E+00
     -9.805  0.0000E+00  0.0000E+00
     -9.772  0.0000E+00  0.0000E+00
     -9.739  0.8971E-15  0.2964E-16
     -9.706  0.7987E-12  0.2642E-13
     -9.673  0.3020E-09  0.1001E-10
     -9.639  0.4867E-07  0.1618E-08
     -9.606  0.3363E-05  0.1127E-06
     -9.573  0.1002E-03  0.3425E-05
     -9.540  0.1299E-02  0.4635E-04
     -9.507  0.7381E-02  0.2902E-03
     -9.474  0.1852E-01  0.9023E-03
     -9.441  0.2072E-01  0.1587E-02
     -9.408  0.1161E-01  0.1970E-02
     -9.375  0.1005E-01  0.2303E-02
     -9.342  0.1918E-01  0.2936E-02
     -9.309  0.2092E-01  0.3628E-02
     -9.276  0.1457E-01  0.4109E-02
     -9.243  0.2128E-01  0.4812E-02
     -9.210  0.4009E-01  0.6137E-02
     -9.177  0.5636E-01  0.7999E-02
     -9.144  0.7484E-01  0.1047E-01
     -9.111  0.8474E-01  0.1327E-01
     -9.078  0.7152E-01  0.1564E-01
     -9.045  0.4667E-01  0.1718E-01
     -9.012  0.1991E-01  0.1784E-01
     -8.979  0.4477E-02  0.1798E-01
     -8.946  0.5758E-03  0.1800E-01
     -8.913  0.1548E-02  0.1805E-01
     -8.879  0.1046E-01  0.1840E-01
     -8.846  0.3182E-01  0.1945E-01
     -8.813  0.4319E-01  0.2088E-01
     -8.780  0.2714E-01  0.2177E-01
     -8.747  0.1581E-01  0.2230E-01
     -8.714  0.3631E-01  0.2350E-01
     -8.681  0.7160E-01  0.2586E-01
     -8.648  0.7424E-01  0.2832E-01
     -8.615  0.3982E-01  0.2963E-01
     -8.582  0.1412E-01  0.3010E-01
     -8.549  0.1528E-01  0.3060E-01
     -8.516  0.2554E-01  0.3145E-01
     -8.483  0.3559E-01  0.3262E-01
     -8.450  0.5586E-01  0.3447E-01
     -8.417  0.6298E-01  0.3655E-01
     -8.384  0.4402E-01  0.3801E-01
     -8.351  0.3483E-01  0.3916E-01
     -8.318  0.4406E-01  0.4061E-01
     -8.285  0.5140E-01  0.4231E-01
     -8.252  0.3896E-01  0.4360E-01
     -8.219  0.2471E-01  0.4441E-01
     -8.186  0.3027E-01  0.4541E-01
     -8.153  0.4454E-01  0.4689E-01
     -8.119  0.5190E-01  0.4860E-01
     -8.086  0.4493E-01  0.5009E-01
     -8.053  0.4618E-01  0.5161E-01
     -8.020  0.5383E-01  0.5339E-01
     -7.987  0.4966E-01  0.5503E-01
     -7.954  0.4371E-01  0.5648E-01
     -7.921  0.3799E-01  0.5773E-01
     -7.888  0.3216E-01  0.5879E-01
     -7.855  0.2364E-01  0.5958E-01
     -7.822  0.1053E-01  0.5992E-01
     -7.789  0.3678E-02  0.6005E-01
     -7.756  0.9062E-02  0.6034E-01
     -7.723  0.2597E-01  0.6120E-01
     -7.690  0.4167E-01  0.6258E-01
     -7.657  0.4870E-01  0.6419E-01
     -7.624  0.6324E-01  0.6628E-01
     -7.591  0.8209E-01  0.6899E-01
     -7.558  0.8380E-01  0.7176E-01
     -7.525  0.7167E-01  0.7413E-01
     -7.492  0.6475E-01  0.7627E-01
     -7.459  0.6613E-01  0.7845E-01
     -7.426  0.6753E-01  0.8068E-01
     -7.393  0.8245E-01  0.8341E-01
     -7.359  0.1097E+00  0.8703E-01
     -7.326  0.1172E+00  0.9090E-01
     -7.293  0.1074E+00  0.9445E-01
     -7.260  0.8932E-01  0.9740E-01
     -7.227  0.6745E-01  0.9963E-01
     -7.194  0.6491E-01  0.1018E+00
     -7.161  0.7435E-01  0.1042E+00
     -7.128  0.6971E-01  0.1065E+00
     -7.095  0.5490E-01  0.1084E+00
     -7.062  0.5671E-01  0.1102E+00
     -7.029  0.7095E-01  0.1126E+00
     -6.996  0.8021E-01  0.1152E+00
     -6.963  0.7752E-01  0.1178E+00
     -6.930  0.6110E-01  0.1198E+00
     -6.897  0.4461E-01  0.1213E+00
     -6.864  0.4235E-01  0.1227E+00
     -6.831  0.5742E-01  0.1246E+00
     -6.798  0.7896E-01  0.1272E+00
     -6.765  0.8006E-01  0.1298E+00
     -6.732  0.4822E-01  0.1314E+00
     -6.699  0.1509E-01  0.1319E+00
     -6.666  0.2296E-02  0.1320E+00
     -6.633  0.1772E-03  0.1320E+00
     -6.599  0.3005E-03  0.1320E+00
     -6.566  0.2786E-02  0.1321E+00
     -6.533  0.1156E-01  0.1325E+00
     -6.500  0.2123E-01  0.1332E+00
     -6.467  0.1731E-01  0.1338E+00
     -6.434  0.6256E-02  0.1340E+00
     -6.401  0.9975E-03  0.1340E+00
     -6.368  0.6966E-04  0.1340E+00
     -6.335  0.2113E-05  0.1340E+00
     -6.302  0.2764E-07  0.1340E+00
     -6.269  0.4849E-09  0.1340E+00
     -6.236  0.5247E-07  0.1340E+00
     -6.203  0.3576E-05  0.1340E+00
     -6.170  0.1052E-03  0.1340E+00
     -6.137  0.1345E-02  0.1340E+00
     -6.104  0.7540E-02  0.1343E+00
     -6.071  0.1867E-01  0.1349E+00
     -6.038  0.2050E-01  0.1356E+00
     -6.005  0.9993E-02  0.1359E+00
     -5.972  0.2154E-02  0.1360E+00
     -5.939  0.2039E-03  0.1360E+00
     -5.906  0.8408E-05  0.1360E+00
     -5.873  0.1499E-06  0.1360E+00
     -5.839  0.1147E-08  0.1360E+00
     -5.806  0.3747E-11  0.1360E+00
     -5.773  0.5201E-14  0.1360E+00
     -5.740  0.0000E+00  0.1360E+00
     -5.707  0.0000E+00  0.1360E+00
     -5.674  0.0000E+00  0.1360E+00
     -5.641  0.0000E+00  0.1360E+00
     -5.608  0.0000E+00  0.1360E+00
     -5.575  0.0000E+00  0.1360E+00
     -5.542  0.0000E+00  0.1360E+00
     -5.509  0.0000E+00  0.1360E+00
     -5.476  0.0000E+00  0.1360E+00
     -5.443  0.0000E+00  0.1360E+00
     -5.410  0.3965E-15  0.1360E+00
     -5.377  0.3878E-12  0.1360E+00
     -5.344  0.1615E-09  0.1360E+00
     -5.311  0.2864E-07  0.1360E+00
     -5.278  0.2176E-05  0.1360E+00
     -5.245  0.7129E-04  0.1360E+00
     -5.212  0.1014E-02  0.1360E+00
     -5.179  0.6323E-02  0.1362E+00
     -5.146  0.1739E-01  0.1368E+00
     -5.113  0.2120E-01  0.1375E+00
     -5.079  0.1148E-01  0.1379E+00
     -5.046  0.2748E-02  0.1380E+00
     -5.013  0.2893E-03  0.1380E+00
     -4.980  0.1329E-04  0.1380E+00
     -4.947  0.2640E-06  0.1380E+00
     -4.914  0.2254E-08  0.1380E+00
     -4.881  0.8217E-11  0.1380E+00
     -4.848  0.6390E-13  0.1380E+00
     -4.815  0.2771E-10  0.1380E+00
     -4.782  0.6389E-08  0.1380E+00
     -4.749  0.6303E-06  0.1380E+00
     -4.716  0.2682E-04  0.1380E+00
     -4.683  0.4981E-03  0.1380E+00
     -4.650  0.4132E-02  0.1382E+00
     -4.617  0.1602E-01  0.1387E+00
     -4.584  0.3165E-01  0.1397E+00
     -4.551  0.3556E-01  0.1409E+00
     -4.518  0.2339E-01  0.1417E+00
     -4.485  0.8250E-02  0.1419E+00
     -4.452  0.1405E-02  0.1420E+00
     -4.419  0.1086E-03  0.1420E+00
     -4.386  0.3696E-05  0.1420E+00
     -4.353  0.5449E-07  0.1420E+00
     -4.319  0.3448E-09  0.1420E+00
     -4.286  0.9307E-12  0.1420E+00
     -4.253  0.1068E-14  0.1420E+00
     -4.220  0.0000E+00  0.1420E+00
     -4.187  0.0000E+00  0.1420E+00
     -4.154  0.0000E+00  0.1420E+00
     -4.121  0.0000E+00  0.1420E+00
     -4.088  0.1475E-14  0.1420E+00
     -4.055  0.1238E-11  0.1420E+00
     -4.022  0.4411E-09  0.1420E+00
     -3.989  0.6704E-07  0.1420E+00
     -3.956  0.4369E-05  0.1420E+00
     -3.923  0.1229E-03  0.1420E+00
     -3.890  0.1504E-02  0.1421E+00
     -3.857  0.8075E-02  0.1423E+00
     -3.824  0.1915E-01  0.1430E+00
     -3.791  0.2014E-01  0.1436E+00
     -3.758  0.9403E-02  0.1439E+00
     -3.725  0.1940E-02  0.1440E+00
     -3.692  0.1758E-03  0.1440E+00
     -3.659  0.6936E-05  0.1440E+00
     -3.626  0.1183E-06  0.1440E+00
     -3.593  0.8652E-09  0.1440E+00
     -3.559  0.2701E-11  0.1440E+00
     -3.526  0.3588E-14  0.1440E+00
     -3.493  0.3360E-17  0.1440E+00
     -3.460  0.8615E-14  0.1440E+00
     -3.427  0.6305E-11  0.1440E+00
     -3.394  0.1965E-08  0.1440E+00
     -3.361  0.2618E-06  0.1440E+00
     -3.328  0.1500E-04  0.1440E+00
     -3.295  0.3721E-03  0.1440E+00
     -3.262  0.4028E-02  0.1441E+00
     -3.229  0.1919E-01  0.1448E+00
     -3.196  0.4048E-01  0.1461E+00
     -3.163  0.3797E-01  0.1474E+00
     -3.130  0.1583E-01  0.1479E+00
     -3.097  0.2920E-02  0.1480E+00
     -3.064  0.2366E-03  0.1480E+00
     -3.031  0.8361E-05  0.1480E+00
     -2.998  0.1277E-06  0.1480E+00
     -2.965  0.8385E-09  0.1480E+00
     -2.932  0.2351E-11  0.1480E+00
     -2.899  0.2826E-14  0.1480E+00
     -2.866  0.3169E-13  0.1480E+00
     -2.833  0.1824E-10  0.1480E+00
     -2.799  0.4466E-08  0.1480E+00
     -2.766  0.4673E-06  0.1480E+00
     -2.733  0.2102E-04  0.1480E+00
     -2.700  0.4097E-03  0.1480E+00
     -2.667  0.3486E-02  0.1481E+00
     -2.634  0.1305E-01  0.1486E+00
     -2.601  0.2164E-01  0.1493E+00
     -2.568  0.1594E-01  0.1498E+00
     -2.535  0.5471E-02  0.1500E+00
     -2.502  0.3407E-02  0.1501E+00
     -2.469  0.1132E-01  0.1505E+00
     -2.436  0.2113E-01  0.1512E+00
     -2.403  0.1777E-01  0.1518E+00
     -2.370  0.8714E-02  0.1520E+00
     -2.337  0.1235E-01  0.1525E+00
     -2.304  0.2818E-01  0.1534E+00
     -2.271  0.3751E-01  0.1546E+00
     -2.238  0.2804E-01  0.1555E+00
     -2.205  0.1123E-01  0.1559E+00
     -2.172  0.2215E-02  0.1560E+00
     -2.139  0.2013E-03  0.1560E+00
     -2.106  0.8129E-05  0.1560E+00
     -2.073  0.1430E-06  0.1560E+00
     -2.039  0.1082E-08  0.1560E+00
     -2.006  0.3498E-11  0.1560E+00
     -1.973  0.4811E-14  0.1560E+00
     -1.940  0.0000E+00  0.1560E+00
     -1.907  0.1344E-16  0.1560E+00
     -1.874  0.2043E-13  0.1560E+00
     -1.841  0.1243E-10  0.1560E+00
     -1.808  0.3214E-08  0.1560E+00
     -1.775  0.3552E-06  0.1560E+00
     -1.742  0.1687E-04  0.1560E+00
     -1.709  0.3469E-03  0.1560E+00
     -1.676  0.3113E-02  0.1561E+00
     -1.643  0.1229E-01  0.1565E+00
     -1.610  0.2147E-01  0.1572E+00
     -1.577  0.1666E-01  0.1578E+00
     -1.544  0.6081E-02  0.1580E+00
     -1.511  0.4047E-02  0.1581E+00
     -1.478  0.1249E-01  0.1585E+00
     -1.445  0.2151E-01  0.1592E+00
     -1.412  0.1651E-01  0.1598E+00
     -1.379  0.5622E-02  0.1600E+00
     -1.346  0.8463E-03  0.1600E+00
     -1.313  0.1287E-03  0.1600E+00
     -1.279  0.1036E-02  0.1600E+00
     -1.246  0.6401E-02  0.1602E+00
     -1.213  0.1749E-01  0.1608E+00
     -1.180  0.2135E-01  0.1615E+00
     -1.147  0.1339E-01  0.1620E+00
     -1.114  0.1232E-01  0.1624E+00
     -1.081  0.2056E-01  0.1631E+00
     -1.048  0.1899E-01  0.1637E+00
     -1.015  0.7877E-02  0.1639E+00
     -0.982  0.1469E-02  0.1640E+00
     -0.949  0.5820E-03  0.1640E+00
     -0.916  0.3806E-02  0.1641E+00
     -0.883  0.1366E-01  0.1646E+00
     -0.850  0.2177E-01  0.1653E+00
     -0.817  0.1610E-01  0.1658E+00
     -0.784  0.1056E-01  0.1662E+00
     -0.751  0.2139E-01  0.1669E+00
     -0.718  0.3736E-01  0.1681E+00
     -0.685  0.3496E-01  0.1693E+00
     -0.652  0.1716E-01  0.1699E+00
     -0.619  0.6289E-02  0.1701E+00
     -0.586  0.1063E-01  0.1704E+00
     -0.553  0.2063E-01  0.1711E+00
     -0.519  0.1852E-01  0.1717E+00
     -0.486  0.7381E-02  0.1720E+00
     -0.453  0.1299E-02  0.1720E+00
     -0.420  0.1002E-03  0.1720E+00
     -0.387  0.3363E-05  0.1720E+00
     -0.354  0.4867E-07  0.1720E+00
     -0.321  0.3020E-09  0.1720E+00
     -0.288  0.7987E-12  0.1720E+00
     -0.255  0.9004E-15  0.1720E+00
     -0.222  0.0000E+00  0.1720E+00
     -0.189  0.0000E+00  0.1720E+00
     -0.156  0.0000E+00  0.1720E+00
     -0.123  0.0000E+00  0.1720E+00
     -0.090  0.0000E+00  0.1720E+00
     -0.057  0.0000E+00  0.1720E+00
