   13   13 1000    1
  0.1311026E+04  0.2534036E-08  0.2660423E-08  0.2528081E-08  0.5000000E-15
  1.000000000000000E-004
  CAR 
 BLACK                                   
    143      1     86
 
  0.0000000E+00  0.0000000E+00  0.0000000E+00  0.1000000E+01
    1       -9.469907   1.000000
    2       -9.339225   1.000000
    3       -9.226510   1.000000
    4       -9.194269   1.000000
    5       -9.140570   1.000000
    6       -9.137969   1.000000
    7       -9.130866   1.000000
    8       -9.087274   1.000000
    9       -9.065088   1.000000
   10       -8.836980   1.000000
   11       -8.830946   1.000000
   12       -8.700206   1.000000
   13       -8.690204   1.000000
   14       -8.665486   1.000000
   15       -8.662522   1.000000
   16       -8.530264   1.000000
   17       -8.452486   1.000000
   18       -8.447086   1.000000
   19       -8.425673   1.000000
   20       -8.350549   1.000000
   21       -8.296327   1.000000
   22       -8.289413   1.000000
   23       -8.192362   1.000000
   24       -8.134270   1.000000
   25       -8.130650   1.000000
   26       -8.047117   1.000000
   27       -8.041568   1.000000
   28       -7.987855   1.000000
   29       -7.945007   1.000000
   30       -7.884055   1.000000
   31       -7.719598   1.000000
   32       -7.683867   1.000000
   33       -7.629000   1.000000
   34       -7.609387   1.000000
   35       -7.596746   1.000000
   36       -7.561113   1.000000
   37       -7.555749   1.000000
   38       -7.507939   1.000000
   39       -7.477781   1.000000
   40       -7.455260   1.000000
   41       -7.417152   1.000000
   42       -7.378308   1.000000
   43       -7.373845   1.000000
   44       -7.358032   1.000000
   45       -7.354530   1.000000
   46       -7.330207   1.000000
   47       -7.294117   1.000000
   48       -7.292122   1.000000
   49       -7.285047   1.000000
   50       -7.240164   1.000000
   51       -7.196580   1.000000
   52       -7.177239   1.000000
   53       -7.150814   1.000000
   54       -7.134273   1.000000
   55       -7.071731   1.000000
   56       -7.051450   1.000000
   57       -7.014951   1.000000
   58       -7.005142   1.000000
   59       -6.967647   1.000000
   60       -6.961134   1.000000
   61       -6.905640   1.000000
   62       -6.847733   1.000000
   63       -6.819231   1.000000
   64       -6.788995   1.000000
   65       -6.784199   1.000000
   66       -6.766523   1.000000
   67       -6.508662   1.000000
   68       -6.066964   1.000000
   69       -5.137490   1.000000
   70       -4.598640   1.000000
   71       -4.554331   1.000000
   72       -3.821760   0.500000
   73       -3.200361   0.000000
   74       -3.196859   0.000000
   75       -2.613689   0.000000
   76       -2.443488   0.000000
   77       -2.307404   0.000000
   78       -2.267335   0.000000
   79       -1.620255   0.000000
   80       -1.455435   0.000000
   81       -1.205606   0.000000
   82       -1.083922   0.000000
   83       -0.864066   0.000000
   84       -0.737715   0.000000
   85       -0.704441   0.000000
   86       -0.556867   0.000000
