 vasp.5.4.4.18Apr17-6-g9f103f2a35 (build Jun 19 2019 11:58:18) complex          
  
 executed on             LinuxIFC date 2022.07.17  11:24:09
 running on   32 total cores
 distrk:  each k-point on   32 cores,    1 groups
 distr:  one band on NCORES_PER_BAND=  16 cores,    2 groups


--------------------------------------------------------------------------------------------------------


 INCAR:
 POTCAR:   PAW_PBE Ag 06Sep2000                   

 ----------------------------------------------------------------------------- 
|                                                                             |
|           W    W    AA    RRRRR   N    N  II  N    N   GGGG   !!!           |
|           W    W   A  A   R    R  NN   N  II  NN   N  G    G  !!!           |
|           W    W  A    A  R    R  N N  N  II  N N  N  G       !!!           |
|           W WW W  AAAAAA  RRRRR   N  N N  II  N  N N  G  GGG   !            |
|           WW  WW  A    A  R   R   N   NN  II  N   NN  G    G                |
|           W    W  A    A  R    R  N    N  II  N    N   GGGG   !!!           |
|                                                                             |
|      For optimal performance we recommend to set                            |
|        NCORE= 4 - approx SQRT( number of cores)                             |
|      NCORE specifies how many cores store one orbital (NPAR=cpu/NCORE).     |
|      This setting can  greatly improve the performance of VASP for DFT.     |
|      The default,   NCORE=1            might be grossly inefficient         |
|      on modern multi-core architectures or massively parallel machines.     |
|      Do your own testing !!!!                                               |
|      Unfortunately you need to use the default for GW and RPA calculations. |
|      (for HF NCORE is supported but not extensively tested yet)             |
|                                                                             |
 ----------------------------------------------------------------------------- 

 POTCAR:   PAW_PBE Ag 06Sep2000                   
   VRHFIN =Ag : s1 d10                                                          
   LEXCH  = PE                                                                  
   EATOM  =  1037.4134 eV,   76.2477 Ry                                         
                                                                                
   TITEL  = PAW_PBE Ag 06Sep2000                                                
   LULTRA =        F    use ultrasoft PP ?                                      
   IUNSCR =        1    unscreen: 0-lin 1-nonlin 2-no                           
   RPACOR =    2.000    partial core radius                                     
   POMASS =  107.868; ZVAL   =   11.000    mass and valenz                      
   RCORE  =    2.400    outmost cutoff radius                                   
   RWIGS  =    2.840; RWIGS  =    1.503    wigner-seitz radius (au A)           
   ENMAX  =  249.846; ENMIN  =  187.385 eV                                      
   RCLOC  =    1.962    cutoff for local pot                                    
   LCOR   =        T    correct aug charges                                     
   LPAW   =        T    paw PP                                                  
   EAUG   =  412.496                                                            
   DEXC   =    -.047                                                            
   RMAX   =    2.917    core radius for proj-oper                               
   RAUG   =    1.300    factor for augmentation sphere                          
   RDEP   =    2.416    radius for radial grids                                 
   QCUT   =   -4.285; QGAM   =    8.570    optimization parameters              
                                                                                
   Description                                                                  
     l     E      TYP  RCUT    TYP  RCUT                                        
     2   .000     23  2.400                                                     
     2   .000     23  2.400                                                     
     0   .000     23  2.400                                                     
     0   .000     23  2.400                                                     
     1  -.200     23  2.400                                                     
     1  1.500     23  2.400                                                     
     3   .000      7   .000                                                     
  local pseudopotential read in
  partial core-charges read in
  atomic valenz-charges read in
  non local Contribution for L=           2  read in
    real space projection operators read in
  non local Contribution for L=           2  read in
    real space projection operators read in
  non local Contribution for L=           0  read in
    real space projection operators read in
  non local Contribution for L=           0  read in
    real space projection operators read in
  non local Contribution for L=           1  read in
    real space projection operators read in
  non local Contribution for L=           1  read in
    real space projection operators read in
    PAW grid and wavefunctions read in
 
   number of l-projection  operators is LMAX  =           6
   number of lm-projection operators is LMMAX =          18
 
 Optimization of the real space projectors (new method)

 maximal supplied QI-value         = 15.68
 optimisation between [QCUT,QGAM] = [ 10.20, 20.39] = [ 29.11,116.42] Ry 
 Optimized for a Real-space Cutoff    1.42 Angstroem

   l    n(q)    QCUT    max X(q) W(low)/X(q) W(high)/X(q)  e(spline) 
   2      8    10.195     3.831    0.87E-04    0.50E-04    0.39E-07
   2      8    10.195    20.184    0.33E-03    0.72E-03    0.15E-06
   0      9    10.195    16.770    0.37E-04    0.52E-05    0.77E-08
   0      9    10.195    80.708    0.39E-03    0.16E-03    0.65E-07
   1      8    10.195     6.696    0.51E-04    0.95E-04    0.27E-07
   1      8    10.195     8.973    0.13E-03    0.22E-03    0.14E-06
 PAW_PBE Ag 06Sep2000                   :
 energy of atom  1       EATOM=-1037.4134
 kinetic energy error for atom=    0.0091 (will be added to EATOM!!)
 
 
 POSCAR: 13-c2-1-71.xyz                          
  positions in cartesian coordinates
  No initial velocities read in
 exchange correlation table for  LEXCH =        8
   RHO(1)=    0.500       N(1)  =     2000
   RHO(2)=  100.500       N(2)  =     4000
 


--------------------------------------------------------------------------------------------------------


 ion  position               nearest neighbor table
   1  0.722  0.572  0.637-   5 2.76  13 2.78  10 2.80  11 2.89
   2  0.594  0.521  0.511-  13 2.77   7 2.78   5 2.83   8 2.87
   3  0.511  0.720  0.558-   9 2.74  12 2.78   6 2.83   8 3.00
   4  0.607  0.684  0.720-  11 2.75   6 2.78  12 2.86  10 2.90
   5  0.649  0.502  0.607-   1 2.76  13 2.80   7 2.80   2 2.83  10 2.94
   6  0.583  0.750  0.638-   4 2.78   9 2.78  12 2.81   3 2.83  11 3.14
   7  0.549  0.548  0.607-  10 2.75  12 2.75   2 2.78   5 2.80   8 2.92  13 2.99
   8  0.546  0.618  0.519-  13 2.81   9 2.83   2 2.87   7 2.92  12 2.94   3 3.00
   9  0.616  0.696  0.549-   3 2.74  13 2.74  11 2.74   6 2.78   8 2.83  12 2.93
  10  0.621  0.583  0.680-   7 2.75   1 2.80  12 2.83   4 2.90  11 2.94   5 2.94  13 3.05
  11  0.675  0.671  0.636-   9 2.74   4 2.75  13 2.78   1 2.89  10 2.94   6 3.14  12 3.25
  12  0.549  0.649  0.630-   7 2.75   3 2.78   6 2.81  10 2.83   4 2.86   9 2.93   8 2.94  11 3.25
                            13 3.27
  13  0.646  0.598  0.563-   9 2.74   2 2.77   1 2.78  11 2.78   5 2.80   8 2.81   7 2.99  10 3.05
                            12 3.27
 
  LATTYP: Found a simple orthorhombic cell.
 ALAT       =    25.2808117290
 B/A-ratio  =     1.0023556098
 C/A-ratio  =     1.0523487472
  
  Lattice vectors:
  
 A1 = (   0.0000000000,   0.0000000000,  25.2808117290)
 A2 = ( -25.3403634570,   0.0000000000,   0.0000000000)
 A3 = (   0.0000000000, -26.6042305520,   0.0000000000)


Analysis of symmetry for initial positions (statically):
=====================================================================
 Subroutine PRICEL returns:
 Original cell was already a primitive cell.
 

 Routine SETGRP: Setting up the symmetry group for a 
 simple orthorhombic supercell.


 Subroutine GETGRP returns: Found  1 space group operations
 (whereof  1 operations were pure point group operations)
 out of a pool of  8 trial point group operations.


The static configuration has the point symmetry C_1 .


Analysis of symmetry for dynamics (positions and initial velocities):
=====================================================================
 Subroutine PRICEL returns:
 Original cell was already a primitive cell.
 

 Routine SETGRP: Setting up the symmetry group for a 
 simple orthorhombic supercell.


 Subroutine GETGRP returns: Found  1 space group operations
 (whereof  1 operations were pure point group operations)
 out of a pool of  8 trial point group operations.


The dynamic configuration has the point symmetry C_1 .


 Subroutine INISYM returns: Found  1 space group operations
 (whereof  1 operations are pure point group operations),
 and found     1 'primitive' translations

 
 
 KPOINTS: Monkhorst Pack                          

Automatic generation of k-mesh.
Space group operators:
 irot       det(A)        alpha          n_x          n_y          n_z        tau_x        tau_y        tau_z
    1     1.000000     0.000000     1.000000     0.000000     0.000000     0.000000     0.000000     0.000000
 
 Subroutine IBZKPT returns following result:
 ===========================================
 
 Found      1 irreducible k-points:
 
 Following reciprocal coordinates:
            Coordinates               Weight
  0.000000  0.000000  0.000000      1.000000
 
 Following cartesian coordinates:
            Coordinates               Weight
  0.000000  0.000000  0.000000      1.000000
 


--------------------------------------------------------------------------------------------------------




 Dimension of arrays:
   k-points           NKPTS =      1   k-points in BZ     NKDIM =      1   number of bands    NBANDS=     86
   number of dos      NEDOS =    301   number of ions     NIONS =     13
   non local maximal  LDIM  =      6   non local SUM 2l+1 LMDIM =     18
   total plane-waves  NPLWV = ******
   max r-space proj   IRMAX =   1620   max aug-charges    IRDMAX=   6611
   dimension x,y,z NGX =   126 NGY =  140 NGZ =  126
   dimension x,y,z NGXF=   252 NGYF=  280 NGZF=  252
   support grid    NGXF=   252 NGYF=  280 NGZF=  252
   ions per type =              13
   NGX,Y,Z   is equivalent  to a cutoff of   8.27,  8.75,  8.29 a.u.
   NGXF,Y,Z  is equivalent  to a cutoff of  16.53, 17.50, 16.57 a.u.

 SYSTEM =  BLACK                                   
 POSCAR =  13-c2-1-71.xyz                          

 Startparameter for this run:
   NWRITE =      2    write-flag & timer
   PREC   = normal    normal or accurate (medium, high low for compatibility)
   ISTART =      0    job   : 0-new  1-cont  2-samecut
   ICHARG =      2    charge: 1-file 2-atom 10-const
   ISPIN  =      1    spin polarized calculation?
   LNONCOLLINEAR =      F non collinear calculations
   LSORBIT =      F    spin-orbit coupling
   INIWAV =      1    electr: 0-lowe 1-rand  2-diag
   LASPH  =      F    aspherical Exc in radial PAW
   METAGGA=      F    non-selfconsistent MetaGGA calc.

 Electronic Relaxation 1
   ENCUT  =  400.0 eV  29.40 Ry    5.42 a.u.  41.32 43.38 41.23*2*pi/ulx,y,z
   ENINI  =  400.0     initial cutoff
   ENAUG  =  412.5 eV  augmentation charge cutoff
   NELM   =    200;   NELMIN=  2; NELMDL= -5     # of ELM steps 
   EDIFF  = 0.1E-04   stopping-criterion for ELM
   LREAL  =      T    real-space projection
   NLSPLINE    = F    spline interpolate recip. space projectors
   LCOMPAT=      F    compatible to vasp.4.4
   GGA_COMPAT  = T    GGA compatible to vasp.4.4-vasp.4.6
   LMAXPAW     = -100 max onsite density
   LMAXMIX     =    2 max onsite mixed and CHGCAR
   VOSKOWN=      0    Vosko Wilk Nusair interpolation
   ROPT   =   -0.00050
 Ionic relaxation
   EDIFFG = -.1E-01   stopping-criterion for IOM
   NSW    =   1000    number of steps for IOM
   NBLOCK =      1;   KBLOCK =   1000    inner block; outer block 
   IBRION =      2    ionic relax: 0-MD 1-quasi-New 2-CG
   NFREE  =      1    steps in history (QN), initial steepest desc. (CG)
   ISIF   =      2    stress and relaxation
   IWAVPR =     11    prediction:  0-non 1-charg 2-wave 3-comb
   ISYM   =      2    0-nonsym 1-usesym 2-fastsym
   LCORR  =      T    Harris-Foulkes like correction to forces

   POTIM  = 0.5000    time-step for ionic-motion
   TEIN   =    0.0    initial temperature
   TEBEG  =    0.0;   TEEND  =   0.0 temperature during run
   SMASS  =  -3.00    Nose mass-parameter (am)
   estimated Nose-frequenzy (Omega)   =  0.10E-29 period in steps =****** mass=  -0.147E-25a.u.
   SCALEE = 1.0000    scale energy and forces
   NPACO  =    256;   APACO  = 16.0  distance and # of slots for P.C.
   PSTRESS=    0.0 pullay stress

  Mass of Ions in am
   POMASS = 107.87
  Ionic Valenz
   ZVAL   =  11.00
  Atomic Wigner-Seitz radii
   RWIGS  =  -1.00
  virtual crystal weights 
   VCA    =   1.00
   NELECT =     143.0000    total number of electrons
   NUPDOWN=      -1.0000    fix difference up-down

 DOS related values:
   EMIN   =  10.00;   EMAX   =-10.00  energy-range for DOS
   EFERMI =   0.00
   ISMEAR =     0;   SIGMA  =   0.05  broadening in eV -4-tet -1-fermi 0-gaus

 Electronic relaxation 2 (details)
   IALGO  =     68    algorithm
   LDIAG  =      T    sub-space diagonalisation (order eigenvalues)
   LSUBROT=      F    optimize rotation matrix (better conditioning)
   TURBO    =      0    0=normal 1=particle mesh
   IRESTART =      0    0=no restart 2=restart with 2 vectors
   NREBOOT  =      0    no. of reboots
   NMIN     =      0    reboot dimension
   EREF     =   0.00    reference energy to select bands
   IMIX   =      4    mixing-type and parameters
     AMIX     =   0.40;   BMIX     =  1.00
     AMIX_MAG =   1.60;   BMIX_MAG =  1.00
     AMIN     =   0.10
     WC   =   100.;   INIMIX=   1;  MIXPRE=   1;  MAXMIX= -45

 Intra band minimization:
   WEIMIN = 0.0010     energy-eigenvalue tresh-hold
   EBREAK =  0.29E-07  absolut break condition
   DEPER  =   0.30     relativ break condition  

   TIME   =   0.40     timestep for ELM

  volume/ion in A,a.u.               =    1311.03      8847.24
  Fermi-wavevector in a.u.,A,eV,Ry     =   0.332661  0.628638  1.505667  0.110663
  Thomas-Fermi vector in A             =   1.229858
 
 Write flags
   LWAVE        =      F    write WAVECAR
   LDOWNSAMPLE  =      F    k-point downsampling of WAVECAR
   LCHARG       =      F    write CHGCAR
   LVTOT        =      F    write LOCPOT, total local potential
   LVHAR        =      F    write LOCPOT, Hartree potential only
   LELF         =      F    write electronic localiz. function (ELF)
   LORBIT       =      0    0 simple, 1 ext, 2 COOP (PROOUT), +10 PAW based schemes


 Dipole corrections
   LMONO  =      F    monopole corrections only (constant potential shift)
   LDIPOL =      F    correct potential (dipole corrections)
   IDIPOL =      0    1-x, 2-y, 3-z, 4-all directions 
   EPSILON=  1.0000000 bulk dielectric constant

 Exchange correlation treatment:
   GGA     =    PE    GGA type
   LEXCH   =     8    internal setting for exchange type
   VOSKOWN=      0    Vosko Wilk Nusair interpolation
   LHFCALC =     F    Hartree Fock is set to
   LHFONE  =     F    Hartree Fock one center treatment
   AEXX    =    0.0000 exact exchange contribution

 Linear response parameters
   LEPSILON=     F    determine dielectric tensor
   LRPA    =     F    only Hartree local field effects (RPA)
   LNABLA  =     F    use nabla operator in PAW spheres
   LVEL    =     F    velocity operator in full k-point grid
   LINTERFAST=   F  fast interpolation
   KINTER  =     0    interpolate to denser k-point grid
   CSHIFT  =0.1000    complex shift for real part using Kramers Kronig
   OMEGAMAX=  -1.0    maximum frequency
   DEG_THRESHOLD= 0.2000000E-02 threshold for treating states as degnerate
   RTIME   =   -0.100 relaxation time in fs
  (WPLASMAI=    0.000 imaginary part of plasma frequency in eV, 0.658/RTIME)
   DFIELD  = 0.0000000 0.0000000 0.0000000 field for delta impulse in time
 
 Orbital magnetization related:
   ORBITALMAG=     F  switch on orbital magnetization
   LCHIMAG   =     F  perturbation theory with respect to B field
   DQ        =  0.001000  dq finite difference perturbation B field
   LLRAUG    =     F  two centre corrections for induced B field



--------------------------------------------------------------------------------------------------------


 conjugate gradient relaxation of ions
 charge density and potential will be updated during run
 non-spin polarized calculation
 RMM-DIIS sequential band-by-band and
  variant of blocked Davidson during initial phase
 perform sub-space diagonalisation
    before iterative eigenvector-optimisation
 modified Broyden-mixing scheme, WC =      100.0
 initial mixing is a Kerker type mixing with AMIX =  0.4000 and BMIX =      1.0000
 Hartree-type preconditioning will be used
 using additional bands           14
 real space projection scheme for non local part
 use partial core corrections
 calculate Harris-corrections to forces 
   (improved forces if not selfconsistent)
 use gradient corrections 
 use of overlap-Matrix (Vanderbilt PP)
 Gauss-broadening in eV      SIGMA  =   0.05


--------------------------------------------------------------------------------------------------------


  energy-cutoff  :      400.00
  volume of cell :    17043.33
      direct lattice vectors                 reciprocal lattice vectors
    25.340363457  0.000000000  0.000000000     0.039462733  0.000000000  0.000000000
     0.000000000 26.604230552  0.000000000     0.000000000  0.037588007  0.000000000
     0.000000000  0.000000000 25.280811729     0.000000000  0.000000000  0.039555692

  length of vectors
    25.340363457 26.604230552 25.280811729     0.039462733  0.037588007  0.039555692


 
 k-points in units of 2pi/SCALE and weight: Monkhorst Pack                          
   0.00000000  0.00000000  0.00000000       1.000
 
 k-points in reciprocal lattice and weights: Monkhorst Pack                          
   0.00000000  0.00000000  0.00000000       1.000
 
 position of ions in fractional coordinates (direct lattice) 
   0.72208380  0.57215331  0.63732732
   0.59402232  0.52094950  0.51124383
   0.51133847  0.71966035  0.55824817
   0.60744167  0.68442459  0.72012999
   0.64850212  0.50160545  0.60683165
   0.58297493  0.74984531  0.63807497
   0.54945225  0.54825961  0.60747855
   0.54627039  0.61847560  0.51889009
   0.61616291  0.69634654  0.54942877
   0.62105636  0.58309025  0.68028080
   0.67539160  0.67114716  0.63627399
   0.54945121  0.64945425  0.63033470
   0.64569666  0.59814720  0.56321722
 
 position of ions in cartesian coordinates  (Angst):
  18.29786604 15.22169864 16.11215192
  15.05274155 13.85946048 12.92465892
  12.95750258 19.14600979 14.11296695
  15.39279274 18.20858947 18.20547065
  16.43327936 13.34482699 15.34119673
  14.77279661 19.94905754 16.13105315
  13.92331978 14.58602507 15.35755076
  13.84269029 16.45406735 13.11796269
  15.61379200 18.52576384 13.89000537
  15.73779396 15.51266757 17.19805088
  17.11466869 17.85535371 16.08552289
  13.92329329 17.27823063 15.93537297
  16.36218804 15.91324610 14.23858859
 


--------------------------------------------------------------------------------------------------------


 k-point  1 :   0.0000 0.0000 0.0000  plane waves:  309651

 maximum and minimum number of plane-waves per node :     19369    19344

 maximum number of plane-waves:    309651
 maximum index in each direction: 
   IXMAX=   41   IYMAX=   43   IZMAX=   41
   IXMIN=  -41   IYMIN=  -43   IZMIN=  -41


 real space projection operators:
  total allocation   :       2791.83 KBytes
  max/ min on nodes  :        194.06        165.38


 parallel 3D FFT for wavefunctions:
    minimum data exchange during FFTs selected (reduces bandwidth)
 parallel 3D FFT for charge:
    minimum data exchange during FFTs selected (reduces bandwidth)


 total amount of memory used by VASP MPI-rank0   100146. kBytes
=======================================================================

   base      :      30000. kBytes
   nonlr-proj:        589. kBytes
   fftplans  :      23303. kBytes
   grid      :      32901. kBytes
   one-center:         15. kBytes
   wavefun   :      13338. kBytes
 
     INWAV:  cpu time    0.0000: real time    0.0000
 Broyden mixing: mesh for mixing (old mesh)
   NGX = 83   NGY = 87   NGZ = 83
  (NGX  =252   NGY  =280   NGZ  =252)
  gives a total of 599343 points

 initial charge density was supplied:
 charge density of overlapping atoms calculated
 number of electron     143.0000000 magnetization 
 keeping initial charge density in first step


--------------------------------------------------------------------------------------------------------


 Maximum index for non-local projection operator          166
 Maximum index for augmentation-charges          417 (set IRDMAX)


--------------------------------------------------------------------------------------------------------


 First call to EWALD:  gamma=   0.069
 Maximum number of real-space cells 3x 3x 3
 Maximum number of reciprocal cells 3x 3x 3

    FEWALD:  cpu time    0.0015: real time    0.0015


--------------------------------------- Iteration      1(   1)  ---------------------------------------


    POTLOK:  cpu time    0.4390: real time    0.4445
    SETDIJ:  cpu time    0.0027: real time    0.0063
     EDDAV:  cpu time    2.7097: real time    2.9022
       DOS:  cpu time    0.0006: real time    0.0006
    --------------------------------------------
      LOOP:  cpu time    3.1520: real time    3.3537

 eigenvalue-minimisations  :   188
 total energy-change (2. order) : 0.1177737E+04  (-0.1972275E+04)
 number of electron     143.0000000 magnetization 
 augmentation part      143.0000000 magnetization 

 Free energy of the ion-electron system (eV)
  ---------------------------------------------------
  alpha Z        PSCENC =        17.60842833
  Ewald energy   TEWEN  =     20979.26315673
  -Hartree energ DENC   =    -33834.46922874
  -exchange      EXHF   =         0.00000000
  -V(xc)+E(xc)   XCENC  =      -149.93495346
  PAW double counting   =     11318.69952366   -10715.50934824
  entropy T*S    EENTRO =        -0.05613484
  eigenvalues    EBANDS =        75.87926813
  atomic energy  EATOM  =     13486.25626889
  Solvation  Ediel_sol  =         0.00000000
  ---------------------------------------------------
  free energy    TOTEN  =      1177.73698046 eV

  energy without entropy =     1177.79311530  energy(sigma->0) =     1177.76504788


--------------------------------------------------------------------------------------------------------




--------------------------------------- Iteration      1(   2)  ---------------------------------------


     EDDAV:  cpu time    4.1843: real time    4.4615
       DOS:  cpu time    0.0004: real time    0.0004
    --------------------------------------------
      LOOP:  cpu time    4.1847: real time    4.4619

 eigenvalue-minimisations  :   344
 total energy-change (2. order) :-0.4886485E+03  (-0.4545779E+03)
 number of electron     143.0000000 magnetization 
 augmentation part      143.0000000 magnetization 

 Free energy of the ion-electron system (eV)
  ---------------------------------------------------
  alpha Z        PSCENC =        17.60842833
  Ewald energy   TEWEN  =     20979.26315673
  -Hartree energ DENC   =    -33834.46922874
  -exchange      EXHF   =         0.00000000
  -V(xc)+E(xc)   XCENC  =      -149.93495346
  PAW double counting   =     11318.69952366   -10715.50934824
  entropy T*S    EENTRO =        -0.07088089
  eigenvalues    EBANDS =      -412.75446044
  atomic energy  EATOM  =     13486.25626889
  Solvation  Ediel_sol  =         0.00000000
  ---------------------------------------------------
  free energy    TOTEN  =       689.08850583 eV

  energy without entropy =      689.15938672  energy(sigma->0) =      689.12394628


--------------------------------------------------------------------------------------------------------




--------------------------------------- Iteration      1(   3)  ---------------------------------------


     EDDAV:  cpu time    3.5607: real time    3.5854
       DOS:  cpu time    0.0004: real time    0.0004
    --------------------------------------------
      LOOP:  cpu time    3.5611: real time    3.5858

 eigenvalue-minimisations  :   280
 total energy-change (2. order) :-0.5196587E+03  (-0.4825702E+03)
 number of electron     143.0000000 magnetization 
 augmentation part      143.0000000 magnetization 

 Free energy of the ion-electron system (eV)
  ---------------------------------------------------
  alpha Z        PSCENC =        17.60842833
  Ewald energy   TEWEN  =     20979.26315673
  -Hartree energ DENC   =    -33834.46922874
  -exchange      EXHF   =         0.00000000
  -V(xc)+E(xc)   XCENC  =      -149.93495346
  PAW double counting   =     11318.69952366   -10715.50934824
  entropy T*S    EENTRO =        -0.02847107
  eigenvalues    EBANDS =      -932.45556096
  atomic energy  EATOM  =     13486.25626889
  Solvation  Ediel_sol  =         0.00000000
  ---------------------------------------------------
  free energy    TOTEN  =       169.42981514 eV

  energy without entropy =      169.45828620  energy(sigma->0) =      169.44405067


--------------------------------------------------------------------------------------------------------




--------------------------------------- Iteration      1(   4)  ---------------------------------------


     EDDAV:  cpu time    3.1923: real time    3.3331
       DOS:  cpu time    0.0004: real time    0.0004
    --------------------------------------------
      LOOP:  cpu time    3.1926: real time    3.3335

 eigenvalue-minimisations  :   232
 total energy-change (2. order) :-0.1766976E+03  (-0.1605390E+03)
 number of electron     143.0000000 magnetization 
 augmentation part      143.0000000 magnetization 

 Free energy of the ion-electron system (eV)
  ---------------------------------------------------
  alpha Z        PSCENC =        17.60842833
  Ewald energy   TEWEN  =     20979.26315673
  -Hartree energ DENC   =    -33834.46922874
  -exchange      EXHF   =         0.00000000
  -V(xc)+E(xc)   XCENC  =      -149.93495346
  PAW double counting   =     11318.69952366   -10715.50934824
  entropy T*S    EENTRO =        -0.02820948
  eigenvalues    EBANDS =     -1109.15338956
  atomic energy  EATOM  =     13486.25626889
  Solvation  Ediel_sol  =         0.00000000
  ---------------------------------------------------
  free energy    TOTEN  =        -7.26775187 eV

  energy without entropy =       -7.23954240  energy(sigma->0) =       -7.25364714


--------------------------------------------------------------------------------------------------------




--------------------------------------- Iteration      1(   5)  ---------------------------------------


     EDDAV:  cpu time    2.5179: real time    2.5668
       DOS:  cpu time    0.0005: real time    0.0005
    CHARGE:  cpu time    0.2109: real time    0.2154
    MIXING:  cpu time    0.0495: real time    0.0536
    --------------------------------------------
      LOOP:  cpu time    2.7789: real time    2.8364

 eigenvalue-minimisations  :   178
 total energy-change (2. order) :-0.1989745E+02  (-0.1959891E+02)
 number of electron     142.9999959 magnetization 
 augmentation part       67.9817520 magnetization 

 Broyden mixing:
  rms(total) = 0.62209E+00    rms(broyden)= 0.62206E+00
  rms(prec ) = 0.68431E+00
  weight for this iteration     100.00

 Free energy of the ion-electron system (eV)
  ---------------------------------------------------
  alpha Z        PSCENC =        17.60842833
  Ewald energy   TEWEN  =     20979.26315673
  -Hartree energ DENC   =    -33834.46922874
  -exchange      EXHF   =         0.00000000
  -V(xc)+E(xc)   XCENC  =      -149.93495346
  PAW double counting   =     11318.69952366   -10715.50934824
  entropy T*S    EENTRO =        -0.02820948
  eigenvalues    EBANDS =     -1129.05083739
  atomic energy  EATOM  =     13486.25626889
  Solvation  Ediel_sol  =         0.00000000
  ---------------------------------------------------
  free energy    TOTEN  =       -27.16519970 eV

  energy without entropy =      -27.13699022  energy(sigma->0) =      -27.15109496


--------------------------------------------------------------------------------------------------------




--------------------------------------- Iteration      1(   6)  ---------------------------------------


    POTLOK:  cpu time    0.4235: real time    0.4245
    SETDIJ:  cpu time    0.0024: real time    0.0024
    EDDIAG:  cpu time    0.4796: real time    0.5067
  RMM-DIIS:  cpu time    1.7784: real time    1.8496
    ORTHCH:  cpu time    0.0393: real time    0.0393
       DOS:  cpu time    0.0006: real time    0.0006
    CHARGE:  cpu time    0.2037: real time    0.2042
    MIXING:  cpu time    0.0126: real time    0.0148
    --------------------------------------------
      LOOP:  cpu time    2.9402: real time    3.0421

 eigenvalue-minimisations  :   172
 total energy-change (2. order) : 0.1340427E+01  (-0.8027585E+00)
 number of electron     142.9999958 magnetization 
 augmentation part       68.8016871 magnetization 

 Broyden mixing:
  rms(total) = 0.19526E+00    rms(broyden)= 0.19524E+00
  rms(prec ) = 0.22136E+00
  weight for this iteration     100.00

 eigenvalues of (default mixing * dielectric matrix)
  average eigenvalue GAMMA=   1.3128
  1.3128

 Free energy of the ion-electron system (eV)
  ---------------------------------------------------
  alpha Z        PSCENC =        17.60842833
  Ewald energy   TEWEN  =     20979.26315673
  -Hartree energ DENC   =    -33801.83903898
  -exchange      EXHF   =         0.00000000
  -V(xc)+E(xc)   XCENC  =      -152.29426428
  PAW double counting   =     11262.74886595   -10666.87249530
  entropy T*S    EENTRO =        -0.02820948
  eigenvalues    EBANDS =     -1150.66748422
  atomic energy  EATOM  =     13486.25626889
  Solvation  Ediel_sol  =         0.00000000
  ---------------------------------------------------
  free energy    TOTEN  =       -25.82477236 eV

  energy without entropy =      -25.79656288  energy(sigma->0) =      -25.81066762


--------------------------------------------------------------------------------------------------------




--------------------------------------- Iteration      1(   7)  ---------------------------------------


    POTLOK:  cpu time    0.4221: real time    0.4231
    SETDIJ:  cpu time    0.0017: real time    0.0018
    EDDIAG:  cpu time    0.4914: real time    0.4935
  RMM-DIIS:  cpu time    1.7246: real time    1.8879
    ORTHCH:  cpu time    0.0379: real time    0.0380
       DOS:  cpu time    0.0005: real time    0.0005
    CHARGE:  cpu time    0.2072: real time    0.2078
    MIXING:  cpu time    0.0132: real time    0.0132
    --------------------------------------------
      LOOP:  cpu time    2.8986: real time    3.0658

 eigenvalue-minimisations  :   172
 total energy-change (2. order) : 0.1548029E+00  (-0.1023811E+00)
 number of electron     142.9999958 magnetization 
 augmentation part       69.0418104 magnetization 

 Broyden mixing:
  rms(total) = 0.77022E-01    rms(broyden)= 0.77013E-01
  rms(prec ) = 0.84625E-01
  weight for this iteration     100.00

 eigenvalues of (default mixing * dielectric matrix)
  average eigenvalue GAMMA=   1.7166
  1.3216  2.1116

 Free energy of the ion-electron system (eV)
  ---------------------------------------------------
  alpha Z        PSCENC =        17.60842833
  Ewald energy   TEWEN  =     20979.26315673
  -Hartree energ DENC   =    -33806.08234581
  -exchange      EXHF   =         0.00000000
  -V(xc)+E(xc)   XCENC  =      -152.95357654
  PAW double counting   =     11283.77782301   -10694.22178229
  entropy T*S    EENTRO =        -0.02820948
  eigenvalues    EBANDS =     -1139.28973234
  atomic energy  EATOM  =     13486.25626889
  Solvation  Ediel_sol  =         0.00000000
  ---------------------------------------------------
  free energy    TOTEN  =       -25.66996949 eV

  energy without entropy =      -25.64176002  energy(sigma->0) =      -25.65586475


--------------------------------------------------------------------------------------------------------




--------------------------------------- Iteration      1(   8)  ---------------------------------------


    POTLOK:  cpu time    0.4222: real time    0.4231
    SETDIJ:  cpu time    0.0025: real time    0.0025
    EDDIAG:  cpu time    0.5988: real time    0.6375
  RMM-DIIS:  cpu time    1.7169: real time    1.7216
    ORTHCH:  cpu time    0.0382: real time    0.0382
       DOS:  cpu time    0.0006: real time    0.0006
    CHARGE:  cpu time    0.2094: real time    0.2097
    MIXING:  cpu time    0.0135: real time    0.0136
    --------------------------------------------
      LOOP:  cpu time    3.0022: real time    3.0468

 eigenvalue-minimisations  :   173
 total energy-change (2. order) : 0.2357307E-01  (-0.8548086E-02)
 number of electron     142.9999958 magnetization 
 augmentation part       68.9689840 magnetization 

 Broyden mixing:
  rms(total) = 0.29467E-01    rms(broyden)= 0.29467E-01
  rms(prec ) = 0.34260E-01
  weight for this iteration     100.00

 eigenvalues of (default mixing * dielectric matrix)
  average eigenvalue GAMMA=   1.6854
  1.2774  1.2774  2.5013

 Free energy of the ion-electron system (eV)
  ---------------------------------------------------
  alpha Z        PSCENC =        17.60842833
  Ewald energy   TEWEN  =     20979.26315673
  -Hartree energ DENC   =    -33820.81447630
  -exchange      EXHF   =         0.00000000
  -V(xc)+E(xc)   XCENC  =      -152.82162909
  PAW double counting   =     11321.99132788   -10736.72460064
  entropy T*S    EENTRO =        -0.02820948
  eigenvalues    EBANDS =     -1120.37666275
  atomic energy  EATOM  =     13486.25626889
  Solvation  Ediel_sol  =         0.00000000
  ---------------------------------------------------
  free energy    TOTEN  =       -25.64639642 eV

  energy without entropy =      -25.61818694  energy(sigma->0) =      -25.63229168


--------------------------------------------------------------------------------------------------------




--------------------------------------- Iteration      1(   9)  ---------------------------------------


    POTLOK:  cpu time    0.4198: real time    0.4230
    SETDIJ:  cpu time    0.0021: real time    0.0021
    EDDIAG:  cpu time    0.5416: real time    0.6446
  RMM-DIIS:  cpu time    1.7431: real time    1.7491
    ORTHCH:  cpu time    0.0382: real time    0.0382
       DOS:  cpu time    0.0006: real time    0.0006
    CHARGE:  cpu time    0.2354: real time    0.3651
    MIXING:  cpu time    0.0153: real time    0.0153
    --------------------------------------------
      LOOP:  cpu time    2.9960: real time    3.2379

 eigenvalue-minimisations  :   176
 total energy-change (2. order) : 0.3239308E-02  (-0.1216849E-02)
 number of electron     142.9999958 magnetization 
 augmentation part       69.0043110 magnetization 

 Broyden mixing:
  rms(total) = 0.10904E-01    rms(broyden)= 0.10904E-01
  rms(prec ) = 0.15288E-01
  weight for this iteration     100.00

 eigenvalues of (default mixing * dielectric matrix)
  average eigenvalue GAMMA=   1.6037
  2.5580  1.6622  0.9500  1.2448

 Free energy of the ion-electron system (eV)
  ---------------------------------------------------
  alpha Z        PSCENC =        17.60842833
  Ewald energy   TEWEN  =     20979.26315673
  -Hartree energ DENC   =    -33824.33914944
  -exchange      EXHF   =         0.00000000
  -V(xc)+E(xc)   XCENC  =      -152.88031424
  PAW double counting   =     11322.55871184   -10738.29202167
  entropy T*S    EENTRO =        -0.02820948
  eigenvalues    EBANDS =     -1115.79002808
  atomic energy  EATOM  =     13486.25626889
  Solvation  Ediel_sol  =         0.00000000
  ---------------------------------------------------
  free energy    TOTEN  =       -25.64315712 eV

  energy without entropy =      -25.61494764  energy(sigma->0) =      -25.62905238


--------------------------------------------------------------------------------------------------------




--------------------------------------- Iteration      1(  10)  ---------------------------------------


    POTLOK:  cpu time    0.4220: real time    0.4229
    SETDIJ:  cpu time    0.0024: real time    0.0024
    EDDIAG:  cpu time    0.4892: real time    0.4901
  RMM-DIIS:  cpu time    1.6726: real time    1.6773
    ORTHCH:  cpu time    0.0381: real time    0.0381
       DOS:  cpu time    0.0005: real time    0.0005
    CHARGE:  cpu time    0.2892: real time    0.3562
    MIXING:  cpu time    0.0147: real time    0.0878
    --------------------------------------------
      LOOP:  cpu time    2.9288: real time    3.0753

 eigenvalue-minimisations  :   172
 total energy-change (2. order) :-0.8302382E-04  (-0.1714102E-03)
 number of electron     142.9999958 magnetization 
 augmentation part       69.0010624 magnetization 

 Broyden mixing:
  rms(total) = 0.61020E-02    rms(broyden)= 0.61019E-02
  rms(prec ) = 0.10203E-01
  weight for this iteration     100.00

 eigenvalues of (default mixing * dielectric matrix)
  average eigenvalue GAMMA=   1.8360
  2.8759  2.7458  0.9503  1.3040  1.3040

 Free energy of the ion-electron system (eV)
  ---------------------------------------------------
  alpha Z        PSCENC =        17.60842833
  Ewald energy   TEWEN  =     20979.26315673
  -Hartree energ DENC   =    -33828.38907725
  -exchange      EXHF   =         0.00000000
  -V(xc)+E(xc)   XCENC  =      -152.82784699
  PAW double counting   =     11321.46182482   -10737.12824115
  entropy T*S    EENTRO =        -0.02820948
  eigenvalues    EBANDS =     -1111.85954405
  atomic energy  EATOM  =     13486.25626889
  Solvation  Ediel_sol  =         0.00000000
  ---------------------------------------------------
  free energy    TOTEN  =       -25.64324014 eV

  energy without entropy =      -25.61503066  energy(sigma->0) =      -25.62913540


--------------------------------------------------------------------------------------------------------




--------------------------------------- Iteration      1(  11)  ---------------------------------------


    POTLOK:  cpu time    0.4213: real time    0.4339
    SETDIJ:  cpu time    0.0030: real time    0.0030
    EDDIAG:  cpu time    0.4831: real time    0.4843
  RMM-DIIS:  cpu time    1.6833: real time    1.8574
    ORTHCH:  cpu time    0.0352: real time    0.0352
       DOS:  cpu time    0.0005: real time    0.0005
    CHARGE:  cpu time    0.2114: real time    0.2120
    MIXING:  cpu time    0.0152: real time    0.0152
    --------------------------------------------
      LOOP:  cpu time    2.8530: real time    3.0415

 eigenvalue-minimisations  :   172
 total energy-change (2. order) :-0.1889760E-02  (-0.2315167E-03)
 number of electron     142.9999958 magnetization 
 augmentation part       68.9884119 magnetization 

 Broyden mixing:
  rms(total) = 0.51578E-02    rms(broyden)= 0.51577E-02
  rms(prec ) = 0.66313E-02
  weight for this iteration     100.00

 eigenvalues of (default mixing * dielectric matrix)
  average eigenvalue GAMMA=   1.9274
  3.8583  2.5990  1.6988  0.9547  1.2268  1.2268

 Free energy of the ion-electron system (eV)
  ---------------------------------------------------
  alpha Z        PSCENC =        17.60842833
  Ewald energy   TEWEN  =     20979.26315673
  -Hartree energ DENC   =    -33836.77445103
  -exchange      EXHF   =         0.00000000
  -V(xc)+E(xc)   XCENC  =      -152.73508367
  PAW double counting   =     11318.89583245   -10734.31452062
  entropy T*S    EENTRO =        -0.02820948
  eigenvalues    EBANDS =     -1103.81655151
  atomic energy  EATOM  =     13486.25626889
  Solvation  Ediel_sol  =         0.00000000
  ---------------------------------------------------
  free energy    TOTEN  =       -25.64512990 eV

  energy without entropy =      -25.61692042  energy(sigma->0) =      -25.63102516


--------------------------------------------------------------------------------------------------------




--------------------------------------- Iteration      1(  12)  ---------------------------------------


    POTLOK:  cpu time    0.4224: real time    0.4236
    SETDIJ:  cpu time    0.0023: real time    0.0023
    EDDIAG:  cpu time    0.4838: real time    0.4848
  RMM-DIIS:  cpu time    1.7571: real time    1.8770
    ORTHCH:  cpu time    0.0366: real time    0.0366
       DOS:  cpu time    0.0006: real time    0.0006
    CHARGE:  cpu time    0.2159: real time    0.2163
    MIXING:  cpu time    0.0160: real time    0.0161
    --------------------------------------------
      LOOP:  cpu time    2.9346: real time    3.0572

 eigenvalue-minimisations  :   172
 total energy-change (2. order) :-0.2146151E-02  (-0.1714203E-03)
 number of electron     142.9999958 magnetization 
 augmentation part       69.0047909 magnetization 

 Broyden mixing:
  rms(total) = 0.42724E-02    rms(broyden)= 0.42721E-02
  rms(prec ) = 0.49936E-02
  weight for this iteration     100.00

 eigenvalues of (default mixing * dielectric matrix)
  average eigenvalue GAMMA=   2.0079
  4.8283  2.5607  2.2235  1.2691  1.2691  0.9525  0.9525

 Free energy of the ion-electron system (eV)
  ---------------------------------------------------
  alpha Z        PSCENC =        17.60842833
  Ewald energy   TEWEN  =     20979.26315673
  -Hartree energ DENC   =    -33839.19244562
  -exchange      EXHF   =         0.00000000
  -V(xc)+E(xc)   XCENC  =      -152.75179758
  PAW double counting   =     11315.66117169   -10731.06393508
  entropy T*S    EENTRO =        -0.02820948
  eigenvalues    EBANDS =     -1101.39991393
  atomic energy  EATOM  =     13486.25626889
  Solvation  Ediel_sol  =         0.00000000
  ---------------------------------------------------
  free energy    TOTEN  =       -25.64727605 eV

  energy without entropy =      -25.61906657  energy(sigma->0) =      -25.63317131


--------------------------------------------------------------------------------------------------------




--------------------------------------- Iteration      1(  13)  ---------------------------------------


    POTLOK:  cpu time    0.4224: real time    0.4248
    SETDIJ:  cpu time    0.0026: real time    0.0026
    EDDIAG:  cpu time    0.4727: real time    0.6409
  RMM-DIIS:  cpu time    1.7162: real time    1.7293
    ORTHCH:  cpu time    0.0374: real time    0.0374
       DOS:  cpu time    0.0005: real time    0.0005
    CHARGE:  cpu time    0.2117: real time    0.2120
    MIXING:  cpu time    0.0169: real time    0.0169
    --------------------------------------------
      LOOP:  cpu time    2.8804: real time    3.0644

 eigenvalue-minimisations  :   172
 total energy-change (2. order) :-0.1707447E-02  (-0.4453104E-04)
 number of electron     142.9999958 magnetization 
 augmentation part       68.9969988 magnetization 

 Broyden mixing:
  rms(total) = 0.11932E-02    rms(broyden)= 0.11931E-02
  rms(prec ) = 0.18144E-02
  weight for this iteration     100.00

 eigenvalues of (default mixing * dielectric matrix)
  average eigenvalue GAMMA=   2.0773
  5.2336  3.0686  2.0071  2.0071  1.2049  1.2049  0.9204  0.9720

 Free energy of the ion-electron system (eV)
  ---------------------------------------------------
  alpha Z        PSCENC =        17.60842833
  Ewald energy   TEWEN  =     20979.26315673
  -Hartree energ DENC   =    -33841.15639506
  -exchange      EXHF   =         0.00000000
  -V(xc)+E(xc)   XCENC  =      -152.72919125
  PAW double counting   =     11316.09236535   -10731.53865365
  entropy T*S    EENTRO =        -0.02820948
  eigenvalues    EBANDS =     -1099.41675336
  atomic energy  EATOM  =     13486.25626889
  Solvation  Ediel_sol  =         0.00000000
  ---------------------------------------------------
  free energy    TOTEN  =       -25.64898350 eV

  energy without entropy =      -25.62077402  energy(sigma->0) =      -25.63487876


--------------------------------------------------------------------------------------------------------




--------------------------------------- Iteration      1(  14)  ---------------------------------------


    POTLOK:  cpu time    0.4258: real time    0.4271
    SETDIJ:  cpu time    0.0021: real time    0.0021
    EDDIAG:  cpu time    0.5191: real time    0.5203
  RMM-DIIS:  cpu time    1.8258: real time    1.9137
    ORTHCH:  cpu time    0.0374: real time    0.0374
       DOS:  cpu time    0.0006: real time    0.0006
    CHARGE:  cpu time    0.1964: real time    0.3623
    MIXING:  cpu time    0.0175: real time    0.0176
    --------------------------------------------
      LOOP:  cpu time    3.0247: real time    3.2811

 eigenvalue-minimisations  :   172
 total energy-change (2. order) :-0.1562696E-02  (-0.1514365E-04)
 number of electron     142.9999958 magnetization 
 augmentation part       68.9940783 magnetization 

 Broyden mixing:
  rms(total) = 0.11264E-02    rms(broyden)= 0.11264E-02
  rms(prec ) = 0.14143E-02
  weight for this iteration     100.00

 eigenvalues of (default mixing * dielectric matrix)
  average eigenvalue GAMMA=   2.2261
  6.6155  3.3467  2.6193  1.6576  1.6576  1.1151  1.1151  0.9906  0.9172

 Free energy of the ion-electron system (eV)
  ---------------------------------------------------
  alpha Z        PSCENC =        17.60842833
  Ewald energy   TEWEN  =     20979.26315673
  -Hartree energ DENC   =    -33841.95880508
  -exchange      EXHF   =         0.00000000
  -V(xc)+E(xc)   XCENC  =      -152.72280482
  PAW double counting   =     11316.27088724   -10731.71188427
  entropy T*S    EENTRO =        -0.02820948
  eigenvalues    EBANDS =     -1098.62758373
  atomic energy  EATOM  =     13486.25626889
  Solvation  Ediel_sol  =         0.00000000
  ---------------------------------------------------
  free energy    TOTEN  =       -25.65054619 eV

  energy without entropy =      -25.62233671  energy(sigma->0) =      -25.63644145


--------------------------------------------------------------------------------------------------------




--------------------------------------- Iteration      1(  15)  ---------------------------------------


    POTLOK:  cpu time    0.4274: real time    0.4284
    SETDIJ:  cpu time    0.0024: real time    0.0024
    EDDIAG:  cpu time    0.4855: real time    0.4873
  RMM-DIIS:  cpu time    1.2559: real time    1.2594
    ORTHCH:  cpu time    0.0387: real time    0.0387
       DOS:  cpu time    0.0006: real time    0.0006
    CHARGE:  cpu time    0.2545: real time    0.2675
    MIXING:  cpu time    0.0183: real time    0.0184
    --------------------------------------------
      LOOP:  cpu time    2.4831: real time    2.5026

 eigenvalue-minimisations  :   120
 total energy-change (2. order) :-0.9150193E-03  (-0.8302218E-05)
 number of electron     142.9999958 magnetization 
 augmentation part       68.9964918 magnetization 

 Broyden mixing:
  rms(total) = 0.46648E-03    rms(broyden)= 0.46643E-03
  rms(prec ) = 0.61585E-03
  weight for this iteration     100.00

 eigenvalues of (default mixing * dielectric matrix)
  average eigenvalue GAMMA=   2.2158
  6.9901  3.6933  2.5805  1.9743  1.4703  1.3948  1.0814  1.0814  0.9018  0.9906

 Free energy of the ion-electron system (eV)
  ---------------------------------------------------
  alpha Z        PSCENC =        17.60842833
  Ewald energy   TEWEN  =     20979.26315673
  -Hartree energ DENC   =    -33842.33142197
  -exchange      EXHF   =         0.00000000
  -V(xc)+E(xc)   XCENC  =      -152.72918604
  PAW double counting   =     11316.28300768   -10731.75129013
  entropy T*S    EENTRO =        -0.02820948
  eigenvalues    EBANDS =     -1098.22221523
  atomic energy  EATOM  =     13486.25626889
  Solvation  Ediel_sol  =         0.00000000
  ---------------------------------------------------
  free energy    TOTEN  =       -25.65146121 eV

  energy without entropy =      -25.62325173  energy(sigma->0) =      -25.63735647


--------------------------------------------------------------------------------------------------------




--------------------------------------- Iteration      1(  16)  ---------------------------------------


    POTLOK:  cpu time    0.4240: real time    0.4295
    SETDIJ:  cpu time    0.0019: real time    0.0020
    EDDIAG:  cpu time    0.5287: real time    0.7268
  RMM-DIIS:  cpu time    1.1125: real time    1.1205
    ORTHCH:  cpu time    0.0354: real time    0.5223
       DOS:  cpu time    0.0006: real time    0.0006
    CHARGE:  cpu time    0.2128: real time    0.2132
    MIXING:  cpu time    0.0194: real time    0.0196
    --------------------------------------------
      LOOP:  cpu time    2.3354: real time    3.0344

 eigenvalue-minimisations  :   105
 total energy-change (2. order) :-0.4121659E-03  (-0.1707830E-05)
 number of electron     142.9999958 magnetization 
 augmentation part       68.9952964 magnetization 

 Broyden mixing:
  rms(total) = 0.30920E-03    rms(broyden)= 0.30917E-03
  rms(prec ) = 0.40102E-03
  weight for this iteration     100.00

 eigenvalues of (default mixing * dielectric matrix)
  average eigenvalue GAMMA=   2.3647
  7.6122  4.6499  2.6792  2.6792  1.7061  1.5640  1.1771  1.0130  1.0130  0.9119
  1.0066

 Free energy of the ion-electron system (eV)
  ---------------------------------------------------
  alpha Z        PSCENC =        17.60842833
  Ewald energy   TEWEN  =     20979.26315673
  -Hartree energ DENC   =    -33842.50756335
  -exchange      EXHF   =         0.00000000
  -V(xc)+E(xc)   XCENC  =      -152.72723135
  PAW double counting   =     11316.39182413   -10731.85283015
  entropy T*S    EENTRO =        -0.02820948
  eigenvalues    EBANDS =     -1098.05571714
  atomic energy  EATOM  =     13486.25626889
  Solvation  Ediel_sol  =         0.00000000
  ---------------------------------------------------
  free energy    TOTEN  =       -25.65187338 eV

  energy without entropy =      -25.62366390  energy(sigma->0) =      -25.63776864


--------------------------------------------------------------------------------------------------------




--------------------------------------- Iteration      1(  17)  ---------------------------------------


    POTLOK:  cpu time    0.4270: real time    0.4282
    SETDIJ:  cpu time    0.0023: real time    0.0023
    EDDIAG:  cpu time    0.4847: real time    0.4857
  RMM-DIIS:  cpu time    1.1560: real time    1.1585
    ORTHCH:  cpu time    0.0378: real time    0.0379
       DOS:  cpu time    0.0006: real time    0.0006
    CHARGE:  cpu time    0.2341: real time    0.2414
    MIXING:  cpu time    0.0202: real time    0.0203
    --------------------------------------------
      LOOP:  cpu time    2.3626: real time    2.3748

 eigenvalue-minimisations  :   106
 total energy-change (2. order) :-0.3627336E-03  (-0.2430423E-05)
 number of electron     142.9999958 magnetization 
 augmentation part       68.9964108 magnetization 

 Broyden mixing:
  rms(total) = 0.23509E-03    rms(broyden)= 0.23506E-03
  rms(prec ) = 0.26577E-03
  weight for this iteration     100.00

 eigenvalues of (default mixing * dielectric matrix)
  average eigenvalue GAMMA=   2.3392
  8.0622  4.8485  3.0216  2.4932  1.6776  1.6776  1.2254  1.2254  0.9870  0.9448
  0.9534  0.9534

 Free energy of the ion-electron system (eV)
  ---------------------------------------------------
  alpha Z        PSCENC =        17.60842833
  Ewald energy   TEWEN  =     20979.26315673
  -Hartree energ DENC   =    -33842.51470210
  -exchange      EXHF   =         0.00000000
  -V(xc)+E(xc)   XCENC  =      -152.72900886
  PAW double counting   =     11316.28467843   -10731.73258528
  entropy T*S    EENTRO =        -0.02820948
  eigenvalues    EBANDS =     -1098.06026278
  atomic energy  EATOM  =     13486.25626889
  Solvation  Ediel_sol  =         0.00000000
  ---------------------------------------------------
  free energy    TOTEN  =       -25.65223611 eV

  energy without entropy =      -25.62402663  energy(sigma->0) =      -25.63813137


--------------------------------------------------------------------------------------------------------




--------------------------------------- Iteration      1(  18)  ---------------------------------------


    POTLOK:  cpu time    0.4300: real time    0.4310
    SETDIJ:  cpu time    0.0023: real time    0.0023
    EDDIAG:  cpu time    0.5858: real time    0.6558
  RMM-DIIS:  cpu time    1.2675: real time    1.2752
    ORTHCH:  cpu time    0.0383: real time    0.0390
       DOS:  cpu time    0.0006: real time    0.0006
    CHARGE:  cpu time    0.2113: real time    0.2119
    MIXING:  cpu time    0.0218: real time    0.0219
    --------------------------------------------
      LOOP:  cpu time    2.5575: real time    2.6378

 eigenvalue-minimisations  :   103
 total energy-change (2. order) :-0.9420213E-04  (-0.6203076E-06)
 number of electron     142.9999958 magnetization 
 augmentation part       68.9955458 magnetization 

 Broyden mixing:
  rms(total) = 0.18210E-03    rms(broyden)= 0.18208E-03
  rms(prec ) = 0.20334E-03
  weight for this iteration     100.00

 eigenvalues of (default mixing * dielectric matrix)
  average eigenvalue GAMMA=   2.4091
  8.0755  5.7074  3.1798  2.8273  2.2817  1.6379  1.6379  1.1257  1.1257  0.9255
  0.9255  0.9339  0.9339

 Free energy of the ion-electron system (eV)
  ---------------------------------------------------
  alpha Z        PSCENC =        17.60842833
  Ewald energy   TEWEN  =     20979.26315673
  -Hartree energ DENC   =    -33842.56853600
  -exchange      EXHF   =         0.00000000
  -V(xc)+E(xc)   XCENC  =      -152.72769249
  PAW double counting   =     11316.35826227   -10731.81028836
  entropy T*S    EENTRO =        -0.02820948
  eigenvalues    EBANDS =     -1098.00372020
  atomic energy  EATOM  =     13486.25626889
  Solvation  Ediel_sol  =         0.00000000
  ---------------------------------------------------
  free energy    TOTEN  =       -25.65233031 eV

  energy without entropy =      -25.62412084  energy(sigma->0) =      -25.63822558


--------------------------------------------------------------------------------------------------------




--------------------------------------- Iteration      1(  19)  ---------------------------------------


    POTLOK:  cpu time    0.4272: real time    0.4284
    SETDIJ:  cpu time    0.0026: real time    0.0026
    EDDIAG:  cpu time    0.4839: real time    0.4849
  RMM-DIIS:  cpu time    1.1355: real time    1.1382
    ORTHCH:  cpu time    0.0387: real time    0.0388
       DOS:  cpu time    0.0006: real time    0.0006
    CHARGE:  cpu time    0.2079: real time    0.2268
    MIXING:  cpu time    0.0239: real time    0.0240
    --------------------------------------------
      LOOP:  cpu time    2.3202: real time    2.3441

 eigenvalue-minimisations  :   104
 total energy-change (2. order) :-0.8800560E-04  (-0.5745721E-06)
 number of electron     142.9999958 magnetization 
 augmentation part       68.9960718 magnetization 

 Broyden mixing:
  rms(total) = 0.67447E-04    rms(broyden)= 0.67426E-04
  rms(prec ) = 0.79285E-04
  weight for this iteration     100.00

 eigenvalues of (default mixing * dielectric matrix)
  average eigenvalue GAMMA=   2.3898
  8.3797  5.8543  3.5501  2.8145  2.3361  1.7575  1.5177  1.4074  1.0881  1.0881
  0.9745  0.9745  0.8965  0.8186

 Free energy of the ion-electron system (eV)
  ---------------------------------------------------
  alpha Z        PSCENC =        17.60842833
  Ewald energy   TEWEN  =     20979.26315673
  -Hartree energ DENC   =    -33842.54959671
  -exchange      EXHF   =         0.00000000
  -V(xc)+E(xc)   XCENC  =      -152.72870644
  PAW double counting   =     11316.28000452   -10731.73093034
  entropy T*S    EENTRO =        -0.02820948
  eigenvalues    EBANDS =     -1098.02283382
  atomic energy  EATOM  =     13486.25626889
  Solvation  Ediel_sol  =         0.00000000
  ---------------------------------------------------
  free energy    TOTEN  =       -25.65241832 eV

  energy without entropy =      -25.62420884  energy(sigma->0) =      -25.63831358


--------------------------------------------------------------------------------------------------------




--------------------------------------- Iteration      1(  20)  ---------------------------------------


    POTLOK:  cpu time    0.4294: real time    0.4303
    SETDIJ:  cpu time    0.0031: real time    0.0031
    EDDIAG:  cpu time    0.5286: real time    0.6707
  RMM-DIIS:  cpu time    0.7478: real time    0.7494
    ORTHCH:  cpu time    0.0390: real time    0.0391
       DOS:  cpu time    0.0006: real time    0.0006
    CHARGE:  cpu time    0.2115: real time    0.2119
    MIXING:  cpu time    0.0263: real time    0.0263
    --------------------------------------------
      LOOP:  cpu time    1.9863: real time    2.1312

 eigenvalue-minimisations  :    36
 total energy-change (2. order) :-0.2320535E-04  (-0.7382579E-07)
 number of electron     142.9999958 magnetization 
 augmentation part       68.9960474 magnetization 

 Broyden mixing:
  rms(total) = 0.35906E-04    rms(broyden)= 0.35904E-04
  rms(prec ) = 0.43801E-04
  weight for this iteration     100.00

 eigenvalues of (default mixing * dielectric matrix)
  average eigenvalue GAMMA=   2.4457
  8.3665  6.4438  3.9416  3.0001  2.6204  2.2031  1.6247  1.6247  1.0777  1.0777
  1.0225  1.0225  0.9282  0.8658  0.8658

 Free energy of the ion-electron system (eV)
  ---------------------------------------------------
  alpha Z        PSCENC =        17.60842833
  Ewald energy   TEWEN  =     20979.26315673
  -Hartree energ DENC   =    -33842.54845551
  -exchange      EXHF   =         0.00000000
  -V(xc)+E(xc)   XCENC  =      -152.72861676
  PAW double counting   =     11316.28342042   -10731.73486245
  entropy T*S    EENTRO =        -0.02820948
  eigenvalues    EBANDS =     -1098.02357171
  atomic energy  EATOM  =     13486.25626889
  Solvation  Ediel_sol  =         0.00000000
  ---------------------------------------------------
  free energy    TOTEN  =       -25.65244153 eV

  energy without entropy =      -25.62423205  energy(sigma->0) =      -25.63833679


--------------------------------------------------------------------------------------------------------




--------------------------------------- Iteration      1(  21)  ---------------------------------------


    POTLOK:  cpu time    0.4196: real time    0.5468
    SETDIJ:  cpu time    0.0028: real time    0.0028
    EDDIAG:  cpu time    0.4831: real time    0.4853
  RMM-DIIS:  cpu time    1.0385: real time    1.0449
    ORTHCH:  cpu time    0.0383: real time    0.0384
       DOS:  cpu time    0.0006: real time    0.0006
    CHARGE:  cpu time    0.2157: real time    0.2160
    MIXING:  cpu time    0.0291: real time    0.0291
    --------------------------------------------
      LOOP:  cpu time    2.2277: real time    2.3638

 eigenvalue-minimisations  :    89
 total energy-change (2. order) :-0.1581634E-04  (-0.8614771E-07)
 number of electron     142.9999958 magnetization 
 augmentation part       68.9958376 magnetization 

 Broyden mixing:
  rms(total) = 0.52864E-04    rms(broyden)= 0.52854E-04
  rms(prec ) = 0.56623E-04
  weight for this iteration     100.00

 eigenvalues of (default mixing * dielectric matrix)
  average eigenvalue GAMMA=   2.3725
  8.3349  6.6279  4.0173  3.0734  2.6382  1.9389  1.9389  1.3462  1.2859  1.0944
  1.0944  1.0431  0.9467  0.8404  0.8697  0.8697

 Free energy of the ion-electron system (eV)
  ---------------------------------------------------
  alpha Z        PSCENC =        17.60842833
  Ewald energy   TEWEN  =     20979.26315673
  -Hartree energ DENC   =    -33842.55099205
  -exchange      EXHF   =         0.00000000
  -V(xc)+E(xc)   XCENC  =      -152.72855522
  PAW double counting   =     11316.29377267   -10731.74638128
  entropy T*S    EENTRO =        -0.02820948
  eigenvalues    EBANDS =     -1098.01994593
  atomic energy  EATOM  =     13486.25626889
  Solvation  Ediel_sol  =         0.00000000
  ---------------------------------------------------
  free energy    TOTEN  =       -25.65245734 eV

  energy without entropy =      -25.62424786  energy(sigma->0) =      -25.63835260


--------------------------------------------------------------------------------------------------------




--------------------------------------- Iteration      1(  22)  ---------------------------------------


    POTLOK:  cpu time    0.4455: real time    0.4662
    SETDIJ:  cpu time    0.0025: real time    0.0025
    EDDIAG:  cpu time    0.4862: real time    0.4873
  RMM-DIIS:  cpu time    0.6405: real time    0.7509
    ORTHCH:  cpu time    0.0416: real time    0.1154
       DOS:  cpu time    0.0005: real time    0.0005
    --------------------------------------------
      LOOP:  cpu time    1.6167: real time    1.8227

 eigenvalue-minimisations  :    22
 total energy-change (2. order) :-0.2872905E-05  (-0.5695858E-08)
 number of electron     142.9999958 magnetization 
 augmentation part       68.9958376 magnetization 

 Free energy of the ion-electron system (eV)
  ---------------------------------------------------
  alpha Z        PSCENC =        17.60842833
  Ewald energy   TEWEN  =     20979.26315673
  -Hartree energ DENC   =    -33842.54657587
  -exchange      EXHF   =         0.00000000
  -V(xc)+E(xc)   XCENC  =      -152.72879643
  PAW double counting   =     11316.28918044   -10731.74138750
  entropy T*S    EENTRO =        -0.02820948
  eigenvalues    EBANDS =     -1098.02452532
  atomic energy  EATOM  =     13486.25626889
  Solvation  Ediel_sol  =         0.00000000
  ---------------------------------------------------
  free energy    TOTEN  =       -25.65246021 eV

  energy without entropy =      -25.62425074  energy(sigma->0) =      -25.63835548


--------------------------------------------------------------------------------------------------------




 average (electrostatic) potential at core
  the test charge radii are     1.1249
  (the norm of the test charge is              1.0000)
       1 -48.1692       2 -48.0648       3 -48.0753       4 -48.1176       5 -48.1293
       6 -48.0652       7 -48.2659       8 -48.2051       9 -48.2898      10 -48.2948
      11 -48.2765      12 -48.3379      13 -48.4056
 
 
 
 E-fermi :  -3.8053     XC(G=0):  -0.3529     alpha+bet : -0.1111


 k-point     1 :       0.0000    0.0000    0.0000
  band No.  band energies     occupation 
      1      -9.4802      2.00000
      2      -9.3432      2.00000
      3      -9.2778      2.00000
      4      -9.2073      2.00000
      5      -9.1808      2.00000
      6      -9.1323      2.00000
      7      -9.0956      2.00000
      8      -9.0483      2.00000
      9      -9.0359      2.00000
     10      -8.8626      2.00000
     11      -8.8362      2.00000
     12      -8.7674      2.00000
     13      -8.7443      2.00000
     14      -8.7124      2.00000
     15      -8.6581      2.00000
     16      -8.5583      2.00000
     17      -8.5190      2.00000
     18      -8.4886      2.00000
     19      -8.4601      2.00000
     20      -8.4286      2.00000
     21      -8.3297      2.00000
     22      -8.3004      2.00000
     23      -8.2659      2.00000
     24      -8.2086      2.00000
     25      -8.1530      2.00000
     26      -8.1084      2.00000
     27      -8.0615      2.00000
     28      -8.0111      2.00000
     29      -7.9895      2.00000
     30      -7.9432      2.00000
     31      -7.7330      2.00000
     32      -7.6865      2.00000
     33      -7.6507      2.00000
     34      -7.6222      2.00000
     35      -7.5930      2.00000
     36      -7.5811      2.00000
     37      -7.5381      2.00000
     38      -7.5242      2.00000
     39      -7.4862      2.00000
     40      -7.4551      2.00000
     41      -7.4272      2.00000
     42      -7.3952      2.00000
     43      -7.3772      2.00000
     44      -7.3679      2.00000
     45      -7.3583      2.00000
     46      -7.3576      2.00000
     47      -7.3181      2.00000
     48      -7.3113      2.00000
     49      -7.2921      2.00000
     50      -7.2428      2.00000
     51      -7.2104      2.00000
     52      -7.1817      2.00000
     53      -7.1623      2.00000
     54      -7.1374      2.00000
     55      -7.0686      2.00000
     56      -7.0633      2.00000
     57      -7.0226      2.00000
     58      -7.0121      2.00000
     59      -6.9801      2.00000
     60      -6.9225      2.00000
     61      -6.9010      2.00000
     62      -6.8639      2.00000
     63      -6.8080      2.00000
     64      -6.7964      2.00000
     65      -6.7675      2.00000
     66      -6.7638      2.00000
     67      -6.5061      2.00000
     68      -6.0522      2.00000
     69      -5.1660      2.00000
     70      -4.6392      2.00000
     71      -4.5586      2.00000
     72      -3.8053      1.00000
     73      -3.2333      0.00000
     74      -3.2120      0.00000
     75      -2.6242      0.00000
     76      -2.4495      0.00000
     77      -2.3146      0.00000
     78      -2.2537      0.00000
     79      -1.6252      0.00000
     80      -1.4882      0.00000
     81      -1.2056      0.00000
     82      -1.0772      0.00000
     83      -0.8380      0.00000
     84      -0.7217      0.00000
     85      -0.6491      0.00000
     86      -0.5145      0.00000


--------------------------------------------------------------------------------------------------------


 soft charge-density along one line, spin component           1
         0         1         2         3         4         5         6         7         8         9
 total charge-density along one line
 
 pseudopotential strength for first ion, spin component:           1
-15.752  -0.005  -0.000   0.001   0.001   0.816   0.001   0.000
 -0.005 -15.735   0.002   0.003   0.001   0.001   0.813  -0.000
 -0.000   0.002 -15.743  -0.004   0.006   0.000  -0.000   0.814
  0.001   0.003  -0.004 -15.759  -0.002  -0.000  -0.001   0.001
  0.001   0.001   0.006  -0.002 -15.755  -0.000  -0.000  -0.001
  0.816   0.001   0.000  -0.000  -0.000   0.327  -0.000  -0.000
  0.001   0.813  -0.000  -0.001  -0.000  -0.000   0.328   0.000
  0.000  -0.000   0.814   0.001  -0.001  -0.000   0.000   0.328
 -0.000  -0.001   0.001   0.817   0.000   0.000   0.000  -0.000
 -0.000  -0.000  -0.001   0.000   0.817   0.000   0.000   0.000
 -0.000   0.000  -0.003   0.002   0.003   0.000   0.000   0.000
  0.000   0.000   0.000  -0.000  -0.000  -0.000  -0.000  -0.000
  0.033   0.004   0.001  -0.000   0.001  -0.006  -0.001  -0.000
 -0.000  -0.001   0.005   0.033  -0.000  -0.000   0.000  -0.001
 -0.001  -0.000  -0.019   0.004   0.033   0.000  -0.000   0.004
 -0.021  -0.003  -0.001   0.000  -0.001   0.004   0.001   0.000
  0.000   0.001  -0.003  -0.021   0.000   0.000  -0.000   0.001
  0.001   0.000   0.012  -0.003  -0.021  -0.000   0.000  -0.002
 total augmentation occupancy for first ion, spin component:           1
  1.976  -0.003   0.003   0.001   0.002  -0.013   0.007  -0.004  -0.000  -0.003  -0.005  -0.003   0.011   0.002   0.000   0.022
 -0.003   1.982   0.003   0.004   0.003   0.007  -0.031  -0.005  -0.004  -0.005  -0.001  -0.004   0.001   0.002  -0.001   0.003
  0.003   0.003   1.980  -0.005  -0.007  -0.004  -0.005  -0.025   0.006   0.005   0.028   0.004   0.001  -0.002  -0.009   0.001
  0.001   0.004  -0.005   1.966   0.003  -0.000  -0.004   0.006  -0.004  -0.003  -0.007  -0.000   0.001  -0.003   0.003   0.000
  0.002   0.003  -0.007   0.003   1.968  -0.003  -0.005   0.005  -0.003  -0.006  -0.002   0.014   0.000   0.002   0.009   0.001
 -0.013   0.007  -0.004  -0.000  -0.003   0.051   0.010   0.000   0.005   0.005   0.007   0.005  -0.044  -0.004  -0.001   0.002
  0.007  -0.031  -0.005  -0.004  -0.005   0.010   0.020  -0.001  -0.003   0.000   0.009  -0.001  -0.012   0.004  -0.001   0.001
 -0.004  -0.005  -0.025   0.006   0.005   0.000  -0.001   0.023   0.004  -0.005  -0.050   0.024  -0.002  -0.005   0.019   0.000
 -0.000  -0.004   0.006  -0.004  -0.003   0.005  -0.003   0.004   0.040   0.002   0.022  -0.017  -0.004  -0.028  -0.009   0.000
 -0.003  -0.005   0.005  -0.003  -0.006   0.005   0.000  -0.005   0.002   0.039   0.015  -0.020  -0.010   0.000  -0.026   0.000
 -0.005  -0.001   0.028  -0.007  -0.002   0.007   0.009  -0.050   0.022   0.015   1.180  -0.220   0.006  -0.021  -0.130  -0.001
 -0.003  -0.004   0.004  -0.000   0.014   0.005  -0.001   0.024  -0.017  -0.020  -0.220   0.090  -0.009   0.015   0.058   0.001
  0.011   0.001   0.001   0.001   0.000  -0.044  -0.012  -0.002  -0.004  -0.010   0.006  -0.009   0.050   0.003   0.002  -0.002
  0.002   0.002  -0.002  -0.003   0.002  -0.004   0.004  -0.005  -0.028   0.000  -0.021   0.015   0.003   0.025   0.007  -0.000
  0.000  -0.001  -0.009   0.003   0.009  -0.001  -0.001   0.019  -0.009  -0.026  -0.130   0.058   0.002   0.007   0.044   0.000
  0.022   0.003   0.001   0.000   0.001   0.002   0.001   0.000   0.000   0.000  -0.001   0.001  -0.002  -0.000   0.000   0.000
 -0.000  -0.001   0.003   0.021  -0.000   0.000  -0.000   0.000   0.002   0.000   0.003  -0.001  -0.000  -0.001  -0.000   0.000
 -0.001  -0.000  -0.012   0.002   0.020  -0.000   0.000  -0.001   0.001   0.002   0.015  -0.005   0.000  -0.001  -0.003  -0.000


------------------------ aborting loop because EDIFF is reached ----------------------------------------


    CHARGE:  cpu time    0.2098: real time    0.2106
    FORLOC:  cpu time    0.0325: real time    0.0325
    FORNL :  cpu time    0.6757: real time    0.6795
    STRESS:  cpu time    2.0486: real time    2.0929
    FORCOR:  cpu time    0.4652: real time    0.4842
    FORHAR:  cpu time    0.1382: real time    0.1387
    MIXING:  cpu time    0.0313: real time    0.0313
    OFIELD:  cpu time    0.0003: real time    0.0017

  FORCE on cell =-STRESS in cart. coord.  units (eV):
  Direction    XX          YY          ZZ          XY          YZ          ZX
  --------------------------------------------------------------------------------------
  Alpha Z    17.60843    17.60843    17.60843
  Ewald    5376.11182  9387.05078  6216.09562 -1958.11341  1375.02703  2152.17697
  Hartree  9868.76581 13372.42834 10601.35101 -1729.50153  1205.32362  1834.60675
  E(xc)    -754.48607  -753.26156  -754.17558    -0.56745     0.43418     0.88909
  Local  -15940.19841-23451.28885-17511.57704  3686.91094 -2579.48925 -3981.07205
  n-local  -885.86643  -884.14028  -885.67446    -0.94483     0.79176     0.42746
  augment   538.27407   536.95250   537.91057     0.39469    -0.36996    -1.58192
  Kinetic  1779.88448  1774.94830  1778.57925     1.74114    -1.36238    -4.74175
  Fock        0.00000     0.00000     0.00000     0.00000     0.00000     0.00000
  -------------------------------------------------------------------------------------
  Total       0.09369     0.29765     0.11780    -0.08045     0.35500     0.70455
  in kB       0.00881     0.02798     0.01107    -0.00756     0.03337     0.06623
  external pressure =        0.02 kB  Pullay stress =        0.00 kB


 VOLUME and BASIS-vectors are now :
 -----------------------------------------------------------------------------
  energy-cutoff  :      400.00
  volume of cell :    17043.33
      direct lattice vectors                 reciprocal lattice vectors
    25.340363457  0.000000000  0.000000000     0.039462733  0.000000000  0.000000000
     0.000000000 26.604230552  0.000000000     0.000000000  0.037588007  0.000000000
     0.000000000  0.000000000 25.280811729     0.000000000  0.000000000  0.039555692

  length of vectors
    25.340363457 26.604230552 25.280811729     0.039462733  0.037588007  0.039555692


 FORCES acting on ions
    electron-ion (+dipol)            ewald-force                    non-local-force                 convergence-correction
 -----------------------------------------------------------------------------------------------
   -.990E+03 0.282E+03 -.237E+03   0.986E+03 -.282E+03 0.237E+03   0.471E+01 -.940E-01 0.603E+00   0.852E-04 -.387E-04 -.443E-04
   0.895E+02 0.696E+03 0.777E+03   -.891E+02 -.694E+03 -.774E+03   -.368E+00 -.273E+01 -.347E+01   -.156E-04 -.195E-04 0.659E-04
   0.760E+03 -.602E+03 0.369E+03   -.757E+03 0.600E+03 -.367E+03   -.367E+01 0.219E+01 -.190E+01   0.174E-04 0.801E-04 -.166E-04
   0.127E+02 -.354E+03 -.981E+03   -.123E+02 0.354E+03 0.976E+03   -.431E+00 0.300E+00 0.454E+01   -.691E-05 0.443E-04 0.154E-04
   -.320E+03 0.100E+04 -.888E+02   0.320E+03 -.100E+04 0.880E+02   0.740E+00 -.343E+01 0.808E+00   -.370E-04 0.100E-03 0.121E-04
   0.992E+02 -.998E+03 -.274E+03   -.993E+02 0.994E+03 0.273E+03   0.165E+00 0.348E+01 0.868E+00   0.514E-04 -.168E-03 -.112E-03
   0.780E+03 0.682E+03 -.192E+03   -.777E+03 -.679E+03 0.192E+03   -.303E+01 -.258E+01 -.789E+00   -.214E-03 -.366E-03 0.172E-04
   0.585E+03 0.386E+02 0.834E+03   -.583E+03 -.386E+02 -.832E+03   -.202E+01 0.109E+00 -.238E+01   -.118E-03 0.188E-06 -.177E-03
   -.346E+03 -.669E+03 0.711E+03   0.346E+03 0.667E+03 -.708E+03   0.817E-01 0.222E+01 -.276E+01   0.950E-04 0.307E-03 -.902E-04
   -.249E+02 0.421E+03 -.906E+03   0.239E+02 -.419E+03 0.903E+03   0.111E+01 -.108E+01 0.266E+01   0.974E-04 -.163E-03 0.182E-03
   -.840E+03 -.513E+03 -.224E+03   0.837E+03 0.511E+03 0.222E+03   0.249E+01 0.161E+01 0.157E+01   0.146E-03 0.215E-03 0.203E-04
   0.754E+03 -.932E+02 -.381E+03   -.753E+03 0.915E+02 0.380E+03   -.572E+00 0.178E+01 0.382E+00   -.113E-03 0.271E-03 0.120E-03
   -.558E+03 0.106E+03 0.592E+03   0.558E+03 -.105E+03 -.592E+03   0.354E+00 -.183E+01 -.641E-01   0.236E-03 -.171E-03 -.809E-04
 -----------------------------------------------------------------------------------------------
   0.433E+00 0.419E-01 -.859E-01   -.114E-12 0.412E-12 0.000E+00   -.444E+00 -.504E-01 0.741E-01   0.225E-03 0.915E-04 -.877E-04
 
 
 POSITION                                       TOTAL-FORCE (eV/Angst)
 -----------------------------------------------------------------------------------
     18.29787     15.22170     16.11215         0.120829      0.052591      0.140346
     15.05274     13.85946     12.92466        -0.023416     -0.059973     -0.167319
     12.95750     19.14601     14.11297        -0.155032     -0.072722     -0.058691
     15.39279     18.20859     18.20547        -0.037321     -0.047040      0.035241
     16.43328     13.34483     15.34120        -0.007290     -0.183447      0.010686
     14.77280     19.94906     16.13105         0.085393      0.038924      0.038146
     13.92332     14.58603     15.35755        -0.080644     -0.037106     -0.110018
     13.84269     16.45407     13.11796        -0.129673      0.058914      0.138143
     15.61379     18.52576     13.89001         0.049694      0.173428     -0.154872
     15.73779     15.51267     17.19805         0.112158      0.163659      0.019783
     17.11467     17.85535     16.08552        -0.083950     -0.001256      0.115806
     13.92329     17.27823     15.93537         0.121925      0.086786      0.012109
     16.36219     15.91325     14.23859         0.027325     -0.172758     -0.019358
 -----------------------------------------------------------------------------------
    total drift:                               -0.011346     -0.008393     -0.011930


--------------------------------------------------------------------------------------------------------



  FREE ENERGIE OF THE ION-ELECTRON SYSTEM (eV)
  ---------------------------------------------------
  free  energy   TOTEN  =       -25.65246021 eV

  energy  without entropy=      -25.62425074  energy(sigma->0) =      -25.63835548
 


--------------------------------------------------------------------------------------------------------


    POTLOK:  cpu time    0.4328: real time    0.4347


--------------------------------------------------------------------------------------------------------




--------------------------------------------------------------------------------------------------------


    WAVPRE:  cpu time    0.0907: real time    0.0984
    FEWALD:  cpu time    0.0006: real time    0.0014

 real space projection operators:
  total allocation   :       2791.12 KBytes
  max/ min on nodes  :        194.34        165.38

    ORTHCH:  cpu time    0.2583: real time    0.2588
     LOOP+:  cpu time   65.6121: real time   69.1757


--------------------------------------- Iteration      2(   1)  ---------------------------------------


    POTLOK:  cpu time    0.4245: real time    0.4283
    SETDIJ:  cpu time    0.0033: real time    0.0033
     EDDAV:  cpu time    2.5101: real time    2.7680
       DOS:  cpu time    0.0005: real time    0.0005
    CHARGE:  cpu time    0.2090: real time    0.2091
    MIXING:  cpu time    0.0133: real time    0.0133
    --------------------------------------------
      LOOP:  cpu time    3.1609: real time    3.4227

 eigenvalue-minimisations  :   178
 total energy-change (2. order) :-0.1365273E-01  (-0.6959299E+00)
 number of electron     142.9999977 magnetization 
 augmentation part       69.0034130 magnetization 

 Broyden mixing:
  rms(total) = 0.69894E-02    rms(broyden)= 0.69764E-02
  rms(prec ) = 0.74149E-02
  weight for this iteration     100.00

 Free energy of the ion-electron system (eV)
  ---------------------------------------------------
  alpha Z        PSCENC =        17.60842833
  Ewald energy   TEWEN  =     20941.35298161
  -Hartree energ DENC   =    -33804.88233455
  -exchange      EXHF   =         0.00000000
  -V(xc)+E(xc)   XCENC  =      -152.80177056
  PAW double counting   =     11316.28789966   -10731.73880386
  entropy T*S    EENTRO =        -0.02820948
  eigenvalues    EBANDS =     -1097.72057011
  atomic energy  EATOM  =     13486.25626889
  Solvation  Ediel_sol  =         0.00000000
  ---------------------------------------------------
  free energy    TOTEN  =       -25.66611008 eV

  energy without entropy =      -25.63790060  energy(sigma->0) =      -25.65200534


--------------------------------------------------------------------------------------------------------




--------------------------------------- Iteration      2(   2)  ---------------------------------------


    POTLOK:  cpu time    0.4307: real time    0.4310
    SETDIJ:  cpu time    0.0432: real time    0.0432
    EDDIAG:  cpu time    0.4839: real time    0.5030
  RMM-DIIS:  cpu time    1.7315: real time    1.8424
    ORTHCH:  cpu time    0.0398: real time    0.0398
       DOS:  cpu time    0.0006: real time    0.0006
    CHARGE:  cpu time    0.2035: real time    0.2037
    MIXING:  cpu time    0.0138: real time    0.0138
    --------------------------------------------
      LOOP:  cpu time    2.9469: real time    3.0776

 eigenvalue-minimisations  :   172
 total energy-change (2. order) :-0.2890702E-02  (-0.3077829E-02)
 number of electron     142.9999977 magnetization 
 augmentation part       69.0033602 magnetization 

 Broyden mixing:
  rms(total) = 0.57586E-02    rms(broyden)= 0.57557E-02
  rms(prec ) = 0.60974E-02
  weight for this iteration     100.00

 eigenvalues of (default mixing * dielectric matrix)
  average eigenvalue GAMMA=   0.5700
  0.5700

 Free energy of the ion-electron system (eV)
  ---------------------------------------------------
  alpha Z        PSCENC =        17.60842833
[...]
  -exchange      EXHF   =         0.00000000
  -V(xc)+E(xc)   XCENC  =      -152.85790380
  PAW double counting   =     11310.03971331   -10725.00886059
  entropy T*S    EENTRO =        -0.02820948
  eigenvalues    EBANDS =     -1095.71969778
  atomic energy  EATOM  =     13486.25626889
  Solvation  Ediel_sol  =         0.00000000
  ---------------------------------------------------
  free energy    TOTEN  =       -25.72223476 eV

  energy without entropy =      -25.69402529  energy(sigma->0) =      -25.70813003


--------------------------------------------------------------------------------------------------------




--------------------------------------- Iteration     41(   2)  ---------------------------------------


    POTLOK:  cpu time    0.4416: real time    0.4419
    SETDIJ:  cpu time    0.0024: real time    0.0024
    EDDIAG:  cpu time    0.4931: real time    0.5174
  RMM-DIIS:  cpu time    1.7135: real time    1.7164
    ORTHCH:  cpu time    0.0389: real time    0.0391
       DOS:  cpu time    0.0006: real time    0.0006
    CHARGE:  cpu time    0.2027: real time    0.2029
    MIXING:  cpu time    0.0136: real time    0.0136
    --------------------------------------------
      LOOP:  cpu time    2.9064: real time    2.9343

 eigenvalue-minimisations  :   172
 total energy-change (2. order) :-0.2831935E-04  (-0.2890299E-04)
 number of electron     142.9999932 magnetization 
 augmentation part       69.0163411 magnetization 

 Broyden mixing:
  rms(total) = 0.57063E-03    rms(broyden)= 0.57036E-03
  rms(prec ) = 0.60320E-03
  weight for this iteration     100.00

 eigenvalues of (default mixing * dielectric matrix)
  average eigenvalue GAMMA=   0.5630
  0.5630

 Free energy of the ion-electron system (eV)
  ---------------------------------------------------
  alpha Z        PSCENC =        17.60842833
  Ewald energy   TEWEN  =     20908.65445165
  -Hartree energ DENC   =    -33774.64176147
  -exchange      EXHF   =         0.00000000
  -V(xc)+E(xc)   XCENC  =      -152.85904879
  PAW double counting   =     11310.09267951   -10725.06812353
  entropy T*S    EENTRO =        -0.02820948
  eigenvalues    EBANDS =     -1095.73694819
  atomic energy  EATOM  =     13486.25626889
  Solvation  Ediel_sol  =         0.00000000
  ---------------------------------------------------
  free energy    TOTEN  =       -25.72226308 eV

  energy without entropy =      -25.69405360  energy(sigma->0) =      -25.70815834


--------------------------------------------------------------------------------------------------------




--------------------------------------- Iteration     41(   3)  ---------------------------------------


    POTLOK:  cpu time    0.4380: real time    0.4394
    SETDIJ:  cpu time    0.0023: real time    0.0023
    EDDIAG:  cpu time    0.4902: real time    0.6407
  RMM-DIIS:  cpu time    1.0666: real time    1.1075
    ORTHCH:  cpu time    0.0371: real time    0.0371
       DOS:  cpu time    0.0003: real time    0.0003
    --------------------------------------------
      LOOP:  cpu time    2.0344: real time    2.2273

 eigenvalue-minimisations  :    87
 total energy-change (2. order) :-0.2382294E-06  (-0.5044391E-06)
 number of electron     142.9999932 magnetization 
 augmentation part       69.0163411 magnetization 

 Free energy of the ion-electron system (eV)
  ---------------------------------------------------
  alpha Z        PSCENC =        17.60842833
  Ewald energy   TEWEN  =     20908.65445165
  -Hartree energ DENC   =    -33774.63056483
  -exchange      EXHF   =         0.00000000
  -V(xc)+E(xc)   XCENC  =      -152.85918381
  PAW double counting   =     11310.12219036   -10725.09981284
  entropy T*S    EENTRO =        -0.02820948
  eigenvalues    EBANDS =     -1095.74583159
  atomic energy  EATOM  =     13486.25626889
  Solvation  Ediel_sol  =         0.00000000
  ---------------------------------------------------
  free energy    TOTEN  =       -25.72226332 eV

  energy without entropy =      -25.69405384  energy(sigma->0) =      -25.70815858


--------------------------------------------------------------------------------------------------------




 average (electrostatic) potential at core
  the test charge radii are     1.1249
  (the norm of the test charge is              1.0000)
       1 -48.1292       2 -48.0306       3 -48.0300       4 -48.1279       5 -48.0629
       6 -48.0638       7 -48.2540       8 -48.2142       9 -48.2563      10 -48.2948
      11 -48.2961      12 -48.3803      13 -48.3777
 
 
 
 E-fermi :  -3.8218     XC(G=0):  -0.3442     alpha+bet : -0.1111


 k-point     1 :       0.0000    0.0000    0.0000
  band No.  band energies     occupation 
      1      -9.4699      2.00000
      2      -9.3392      2.00000
      3      -9.2265      2.00000
      4      -9.1943      2.00000
      5      -9.1406      2.00000
      6      -9.1380      2.00000
      7      -9.1309      2.00000
      8      -9.0873      2.00000
      9      -9.0651      2.00000
     10      -8.8370      2.00000
     11      -8.8309      2.00000
     12      -8.7002      2.00000
     13      -8.6902      2.00000
     14      -8.6655      2.00000
     15      -8.6625      2.00000
     16      -8.5303      2.00000
     17      -8.4525      2.00000
     18      -8.4471      2.00000
     19      -8.4257      2.00000
     20      -8.3505      2.00000
     21      -8.2963      2.00000
     22      -8.2894      2.00000
     23      -8.1924      2.00000
     24      -8.1343      2.00000
     25      -8.1307      2.00000
     26      -8.0471      2.00000
     27      -8.0416      2.00000
     28      -7.9879      2.00000
     29      -7.9450      2.00000
     30      -7.8841      2.00000
     31      -7.7196      2.00000
     32      -7.6839      2.00000
     33      -7.6290      2.00000
     34      -7.6094      2.00000
     35      -7.5967      2.00000
     36      -7.5611      2.00000
     37      -7.5557      2.00000
     38      -7.5079      2.00000
     39      -7.4778      2.00000
     40      -7.4553      2.00000
     41      -7.4172      2.00000
     42      -7.3783      2.00000
     43      -7.3738      2.00000
     44      -7.3580      2.00000
     45      -7.3545      2.00000
     46      -7.3302      2.00000
     47      -7.2941      2.00000
     48      -7.2921      2.00000
     49      -7.2850      2.00000
     50      -7.2402      2.00000
     51      -7.1966      2.00000
     52      -7.1772      2.00000
     53      -7.1508      2.00000
     54      -7.1343      2.00000
     55      -7.0717      2.00000
     56      -7.0514      2.00000
     57      -7.0150      2.00000
     58      -7.0051      2.00000
     59      -6.9676      2.00000
     60      -6.9611      2.00000
     61      -6.9056      2.00000
     62      -6.8477      2.00000
     63      -6.8192      2.00000
     64      -6.7890      2.00000
     65      -6.7842      2.00000
     66      -6.7665      2.00000
     67      -6.5087      2.00000
     68      -6.0670      2.00000
     69      -5.1375      2.00000
     70      -4.5986      2.00000
     71      -4.5543      2.00000
     72      -3.8218      1.00000
     73      -3.2004      0.00000
     74      -3.1969      0.00000
     75      -2.6137      0.00000
     76      -2.4435      0.00000
     77      -2.3074      0.00000
     78      -2.2673      0.00000
     79      -1.6203      0.00000
     80      -1.4554      0.00000
     81      -1.2056      0.00000
     82      -1.0839      0.00000
     83      -0.8641      0.00000
     84      -0.7377      0.00000
     85      -0.7044      0.00000
     86      -0.5569      0.00000


--------------------------------------------------------------------------------------------------------


 soft charge-density along one line, spin component           1
         0         1         2         3         4         5         6         7         8         9
 total charge-density along one line
 
 pseudopotential strength for first ion, spin component:           1
-15.729  -0.003  -0.001   0.000   0.001   0.812   0.001   0.000
 -0.003 -15.714   0.002   0.003   0.001   0.001   0.809  -0.000
 -0.001   0.002 -15.723  -0.003   0.008   0.000  -0.000   0.811
  0.000   0.003  -0.003 -15.740   0.000  -0.000  -0.001   0.001
  0.001   0.001   0.008   0.000 -15.733  -0.000  -0.000  -0.001
  0.812   0.001   0.000  -0.000  -0.000   0.328  -0.000  -0.000
  0.001   0.809  -0.000  -0.001  -0.000  -0.000   0.329   0.000
  0.000  -0.000   0.811   0.001  -0.001  -0.000   0.000   0.328
 -0.000  -0.001   0.001   0.813  -0.000   0.000   0.000  -0.000
 -0.000  -0.000  -0.001  -0.000   0.812   0.000   0.000   0.000
 -0.001   0.000  -0.003   0.001   0.003   0.000   0.000   0.000
  0.000   0.000   0.000  -0.000  -0.000  -0.000  -0.000   0.000
  0.034   0.006   0.001  -0.000   0.001  -0.006  -0.001  -0.000
 -0.000  -0.001   0.006   0.033  -0.000  -0.000   0.000  -0.001
 -0.001  -0.000  -0.019   0.005   0.033   0.000  -0.000   0.004
 -0.022  -0.004  -0.000   0.000  -0.001   0.004   0.001   0.000
  0.000   0.001  -0.004  -0.021   0.000   0.000  -0.000   0.001
  0.001   0.000   0.013  -0.004  -0.021  -0.000   0.000  -0.002
 total augmentation occupancy for first ion, spin component:           1
  1.977  -0.003   0.002   0.001   0.001  -0.017   0.006  -0.002   0.000  -0.003  -0.004  -0.003   0.013   0.002   0.001   0.022
 -0.003   1.983   0.003   0.003   0.003   0.006  -0.032  -0.005  -0.004  -0.004  -0.002  -0.004   0.002   0.002  -0.001   0.004
  0.002   0.003   1.980  -0.005  -0.007  -0.002  -0.005  -0.025   0.007   0.003   0.027   0.004   0.000  -0.002  -0.009   0.000
  0.001   0.003  -0.005   1.965   0.003   0.000  -0.004   0.007  -0.003  -0.005  -0.009  -0.000   0.001  -0.003   0.006   0.000
  0.001   0.003  -0.007   0.003   1.969  -0.003  -0.004   0.003  -0.005  -0.006  -0.003   0.014   0.000   0.003   0.008   0.001
 -0.017   0.006  -0.002   0.000  -0.003   0.047   0.009   0.002   0.005   0.003   0.001   0.007  -0.041  -0.004   0.001   0.002
  0.006  -0.032  -0.005  -0.004  -0.004   0.009   0.018  -0.001  -0.003   0.000   0.009  -0.002  -0.011   0.004  -0.001   0.001
 -0.002  -0.005  -0.025   0.007   0.003   0.002  -0.001   0.022   0.004  -0.007  -0.045   0.022  -0.002  -0.005   0.018   0.000
  0.000  -0.004   0.007  -0.003  -0.005   0.005  -0.003   0.004   0.038  -0.000   0.016  -0.014  -0.004  -0.027  -0.006   0.000
 -0.003  -0.004   0.003  -0.005  -0.006   0.003   0.000  -0.007  -0.000   0.036   0.022  -0.022  -0.008   0.001  -0.026   0.000
 -0.004  -0.002   0.027  -0.009  -0.003   0.001   0.009  -0.045   0.016   0.022   1.167  -0.213   0.006  -0.019  -0.127  -0.001
 -0.003  -0.004   0.004  -0.000   0.014   0.007  -0.002   0.022  -0.014  -0.022  -0.213   0.086  -0.009   0.013   0.056   0.001
  0.013   0.002   0.000   0.001   0.000  -0.041  -0.011  -0.002  -0.004  -0.008   0.006  -0.009   0.047   0.003   0.000  -0.002
  0.002   0.002  -0.002  -0.003   0.003  -0.004   0.004  -0.005  -0.027   0.001  -0.019   0.013   0.003   0.023   0.005  -0.000
  0.001  -0.001  -0.009   0.006   0.008   0.001  -0.001   0.018  -0.006  -0.026  -0.127   0.056   0.000   0.005   0.043   0.000
  0.022   0.004   0.000   0.000   0.001   0.002   0.001   0.000   0.000   0.000  -0.001   0.001  -0.002  -0.000   0.000   0.000
  0.000  -0.001   0.004   0.022  -0.000   0.000  -0.000   0.000   0.002  -0.000   0.003  -0.001  -0.000  -0.001  -0.000   0.000
 -0.000   0.000  -0.012   0.003   0.020  -0.000   0.000  -0.001   0.000   0.002   0.014  -0.005   0.000  -0.000  -0.003  -0.000


------------------------ aborting loop because EDIFF is reached ----------------------------------------


    CHARGE:  cpu time    0.2042: real time    0.2044
    FORLOC:  cpu time    0.0321: real time    0.0321
    FORNL :  cpu time    0.6427: real time    0.6703
    STRESS:  cpu time    1.9872: real time    1.9902
    FORCOR:  cpu time    0.4432: real time    0.4445
    FORHAR:  cpu time    0.1406: real time    0.1407
    MIXING:  cpu time    0.0124: real time    0.0124
    OFIELD:  cpu time    0.0002: real time    0.0002

  FORCE on cell =-STRESS in cart. coord.  units (eV):
  Direction    XX          YY          ZZ          XY          YZ          ZX
  --------------------------------------------------------------------------------------
  Alpha Z    17.60843    17.60843    17.60843
  Ewald    5262.77208  9354.02390  6291.85384 -1953.56778  1369.09794  2155.26104
  Hartree  9768.48458 13345.48333 10660.58128 -1727.12586  1205.58482  1854.97326
  E(xc)    -754.35957  -753.13010  -753.98450    -0.56464     0.41773     0.81519
  Local  -15726.49528-23391.35307-17645.33061  3680.25548 -2574.18477 -4005.79945
  n-local  -887.01940  -885.42712  -886.98003    -0.93483     0.66409     0.29977
  augment   538.31751   537.02972   537.66238     0.33751    -0.28310    -1.28437
  Kinetic  1780.04281  1775.05959  1777.92055     1.64330    -1.28703    -4.25363
  Fock        0.00000     0.00000     0.00000     0.00000     0.00000     0.00000
  -------------------------------------------------------------------------------------
  Total      -0.64885    -0.70531    -0.66865     0.04318     0.00969     0.01181
  in kB      -0.06100    -0.06630    -0.06286     0.00406     0.00091     0.00111
  external pressure =       -0.06 kB  Pullay stress =        0.00 kB


 VOLUME and BASIS-vectors are now :
 -----------------------------------------------------------------------------
  energy-cutoff  :      400.00
  volume of cell :    17043.33
      direct lattice vectors                 reciprocal lattice vectors
    25.340363457  0.000000000  0.000000000     0.039462733  0.000000000  0.000000000
     0.000000000 26.604230552  0.000000000     0.000000000  0.037588007  0.000000000
     0.000000000  0.000000000 25.280811729     0.000000000  0.000000000  0.039555692

  length of vectors
    25.340363457 26.604230552 25.280811729     0.039462733  0.037588007  0.039555692


 FORCES acting on ions
    electron-ion (+dipol)            ewald-force                    non-local-force                 convergence-correction
 -----------------------------------------------------------------------------------------------
   -.983E+03 0.270E+03 -.243E+03   0.978E+03 -.270E+03 0.242E+03   0.475E+01 -.978E-01 0.693E+00   -.519E-03 0.717E-02 -.661E-02
   0.855E+02 0.673E+03 0.782E+03   -.852E+02 -.671E+03 -.778E+03   -.348E+00 -.276E+01 -.366E+01   0.400E-02 -.401E-02 0.462E-02
   0.774E+03 -.598E+03 0.341E+03   -.770E+03 0.595E+03 -.340E+03   -.362E+01 0.240E+01 -.150E+01   0.201E-03 -.782E-02 0.198E-01
   0.450E+02 -.350E+03 -.986E+03   -.444E+02 0.350E+03 0.981E+03   -.601E+00 0.463E+00 0.474E+01   -.114E-01 -.209E-02 0.368E-03
   -.323E+03 0.991E+03 -.788E+02   0.322E+03 -.988E+03 0.782E+02   0.853E+00 -.350E+01 0.662E+00   0.188E-01 0.120E-01 -.130E-01
   0.747E+02 -.101E+04 -.251E+03   -.749E+02 0.101E+04 0.250E+03   0.168E+00 0.360E+01 0.731E+00   -.657E-02 -.170E-01 -.136E-01
   0.766E+03 0.689E+03 -.195E+03   -.763E+03 -.687E+03 0.195E+03   -.304E+01 -.247E+01 -.482E+00   0.306E-01 0.122E-01 0.553E-02
   0.612E+03 0.523E+02 0.807E+03   -.610E+03 -.521E+02 -.804E+03   -.185E+01 -.150E+00 -.246E+01   -.124E-01 -.225E-02 0.230E-01
   -.348E+03 -.656E+03 0.741E+03   0.348E+03 0.654E+03 -.737E+03   0.204E+00 0.224E+01 -.324E+01   -.749E-02 -.409E-02 0.753E-02
   -.278E+02 0.434E+03 -.903E+03   0.269E+02 -.432E+03 0.900E+03   0.870E+00 -.124E+01 0.275E+01   0.412E-02 0.561E-02 -.179E-01
   -.835E+03 -.507E+03 -.227E+03   0.832E+03 0.506E+03 0.226E+03   0.232E+01 0.151E+01 0.146E+01   -.447E-02 -.105E-02 -.943E-02
   0.723E+03 -.100E+03 -.377E+03   -.723E+03 0.987E+02 0.377E+03   -.295E+00 0.168E+01 0.259E+00   -.918E-02 -.359E-02 -.174E-01
   -.563E+03 0.114E+03 0.590E+03   0.563E+03 -.113E+03 -.590E+03   0.443E+00 -.167E+01 -.976E-01   -.449E-02 0.557E-02 0.124E-01
 -----------------------------------------------------------------------------------------------
   0.155E+00 0.890E-02 0.175E+00   0.114E-12 -.156E-12 -.227E-12   -.149E+00 0.223E-02 -.133E+00   0.110E-02 0.664E-03 -.467E-02
 
 
 POSITION                                       TOTAL-FORCE (eV/Angst)
 -----------------------------------------------------------------------------------
     18.30929     15.24690     16.16840         0.004017      0.001964     -0.001359
     15.04295     13.87716     12.85172         0.001605     -0.001279      0.000722
     12.90822     19.09010     14.13539        -0.004324     -0.000462      0.003669
     15.31872     18.21324     18.25965        -0.001938     -0.001551     -0.000650
     16.45450     13.30046     15.32440         0.006484      0.002051     -0.004633
     14.87343     19.96406     16.09501        -0.000195     -0.001110     -0.001338
     13.95395     14.57125     15.32860         0.000942     -0.002923     -0.000005
     13.76329     16.46995     13.20024        -0.004968     -0.001438      0.004134
     15.62747     18.55148     13.79508        -0.000139      0.000638     -0.000893
     15.76833     15.52084     17.21472         0.000290      0.001716      0.000314
     17.01503     17.86606     16.10645         0.000869      0.000745      0.001058
     14.03194     17.30559     15.92772        -0.002880     -0.000445     -0.000447
     16.35760     15.87791     14.24316         0.000235      0.002095     -0.000570
 -----------------------------------------------------------------------------------
    total drift:                                0.007094      0.011797      0.036587


--------------------------------------------------------------------------------------------------------



  FREE ENERGIE OF THE ION-ELECTRON SYSTEM (eV)
  ---------------------------------------------------
  free  energy   TOTEN  =       -25.72226332 eV

  energy  without entropy=      -25.69405384  energy(sigma->0) =      -25.70815858
 
 d Force = 0.4674038E-04[ 0.245E-04, 0.689E-04]  d Energy = 0.5812394E-04-0.114E-04
 d Force =-0.4642600E+01[-0.464E+01,-0.464E+01]  d Ewald  =-0.4642600E+01 0.195E-07


--------------------------------------------------------------------------------------------------------


    POTLOK:  cpu time    0.5525: real time    0.6236


--------------------------------------------------------------------------------------------------------


 Conjugate gradient step on ions:
 trial-energy change:   -0.000058  1 .order   -0.000047   -0.000069   -0.000025
  (g-gl).g = 0.803E-05      g.g   = 0.304E-04  gl.gl    = 0.632E-04
 g(Force)  = 0.304E-04   g(Stress)= 0.000E+00 ortho     = 0.444E-05
 gamma     =   0.12721
 trial     =   2.22447
 opt step  =   3.45405  (harmonic =   3.45405) maximal distance =0.00184986
 next E    =   -25.722259   (d E  =  -0.00005)


--------------------------------------------------------------------------------------------------------


  
 reached required accuracy - stopping structural energy minimisation
     LOOP+:  cpu time   12.0219: real time   12.6165
    4ORBIT:  cpu time    0.0000: real time    0.0000

 total amount of memory used by VASP MPI-rank0   100146. kBytes
=======================================================================

   base      :      30000. kBytes
   nonlr-proj:        589. kBytes
   fftplans  :      23303. kBytes
   grid      :      32901. kBytes
   one-center:         15. kBytes
   wavefun   :      13338. kBytes
 
  
  
 General timing and accounting informations for this job:
 ========================================================
  
                  Total CPU time used (sec):      660.229
                            User time (sec):      639.002
                          System time (sec):       21.228
                         Elapsed time (sec):      696.309
  
                   Maximum memory used (kb):      215428.
                   Average memory used (kb):           0.
  
                          Minor page faults:      1531827
                          Major page faults:            0
                 Voluntary context switches:         1187
