<?xml version="1.0" encoding="ISO-8859-1"?>
<modeling>
 <generator>
  <i name="program" type="string">vasp </i>
  <i name="version" type="string">5.4.4.18Apr17-6-g9f103f2a35  </i>
  <i name="subversion" type="string">(build Jun 19 2019 11:58:18) complex            parallel </i>
  <i name="platform" type="string">LinuxIFC </i>
  <i name="date" type="string">2022 07 17 </i>
  <i name="time" type="string">11:24:09 </i>
 </generator>
 <incar>
  <i type="string" name="SYSTEM"> BLACK</i>
  <i type="int" name="ISTART">     0</i>
  <i type="string" name="PREC">normal</i>
  <i type="string" name="ALGO"> Fast</i>
  <i type="int" name="ICHARG">     2</i>
  <i type="int" name="NELM">   200</i>
  <i type="int" name="NELMIN">     2</i>
  <i type="int" name="IBRION">     2</i>
  <i name="EDIFF">      0.00001000</i>
  <i name="EDIFFG">     -0.01000000</i>
  <i type="int" name="NSW">  1000</i>
  <i type="int" name="ISIF">     2</i>
  <i type="int" name="ISYM">     2</i>
  <i name="ENCUT">    400.00000000</i>
  <i type="string" name="LREAL"> auto</i>
  <i type="int" name="ISMEAR">     0</i>
  <i name="SIGMA">      0.05000000</i>
  <i type="int" name="NWRITE">     2</i>
  <i type="logical" name="LWAVE"> F  </i>
  <i type="logical" name="LCHARG"> F  </i>
  <v type="int" name="KPOINT_BSE">    -1     0     0     0</v>
  <i type="int" name="NELM">   200</i>
  <i type="string" name="GGA"> PE</i>
 </incar>
 <structure name="primitive_cell" >
  <crystal>
   <varray name="basis" >
    <v>      25.34036346       0.00000000       0.00000000 </v>
    <v>       0.00000000      26.60423055       0.00000000 </v>
    <v>       0.00000000       0.00000000      25.28081173 </v>
   </varray>
   <i name="volume">  17043.33407204 </i>
   <varray name="rec_basis" >
    <v>       0.03946273       0.00000000       0.00000000 </v>
    <v>       0.00000000       0.03758801       0.00000000 </v>
    <v>       0.00000000       0.00000000       0.03955569 </v>
   </varray>
  </crystal>
  <varray name="positions" >
   <v>      -0.27791620      -0.42784669      -0.36267268 </v>
   <v>      -0.35149788      -0.49839455      -0.39316835 </v>
   <v>      -0.35430334      -0.40185280      -0.43678278 </v>
   <v>      -0.37894364      -0.41690975      -0.31971920 </v>
   <v>      -0.32460840      -0.32885284      -0.36372601 </v>
   <v>      -0.45054775      -0.45174039      -0.39252145 </v>
   <v>      -0.39255833      -0.31557541      -0.27987001 </v>
   <v>      -0.40597768      -0.47905050      -0.48875617 </v>
   <v>      -0.38383709      -0.30365346      -0.45057123 </v>
   <v>      -0.45054879      -0.35054575      -0.36966530 </v>
   <v>      -0.45372961      -0.38152440      -0.48110991 </v>
   <v>      -0.41702507      -0.25015469      -0.36192503 </v>
   <v>      -0.48866153      -0.28033965      -0.44175183 </v>
  </varray>
 </structure>
 <varray name="primitive_index" >
  <v type="int" >        1 </v>
  <v type="int" >        5 </v>
  <v type="int" >       13 </v>
  <v type="int" >       10 </v>
  <v type="int" >       11 </v>
  <v type="int" >        7 </v>
  <v type="int" >        4 </v>
  <v type="int" >        2 </v>
  <v type="int" >        9 </v>
  <v type="int" >       12 </v>
  <v type="int" >        8 </v>
  <v type="int" >        6 </v>
  <v type="int" >        3 </v>
 </varray>
 <kpoints>
  <generation param="Gamma">
   <v type="int" name="divisions">       1        1        1 </v>
   <v name="usershift">      0.00000000       0.00000000       0.00000000 </v>
   <v name="genvec1">      1.00000000       0.00000000       0.00000000 </v>
   <v name="genvec2">      0.00000000       1.00000000       0.00000000 </v>
   <v name="genvec3">      0.00000000       0.00000000       1.00000000 </v>
   <v name="shift">      0.00000000       0.00000000       0.00000000 </v>
  </generation>
  <varray name="kpointlist" >
   <v>       0.00000000       0.00000000       0.00000000 </v>
  </varray>
  <varray name="weights" >
   <v>       1.00000000 </v>
  </varray>
 </kpoints>
 <parameters>
  <separator name="general" >
   <i type="string" name="SYSTEM">BLACK</i>
   <i type="logical" name="LCOMPAT"> F  </i>
  </separator>
  <separator name="electronic" >
   <i type="string" name="PREC">normal</i>
   <i name="ENMAX">    400.00000000</i>
   <i name="ENAUG">    412.49600000</i>
   <i name="EDIFF">      0.00001000</i>
   <i type="int" name="IALGO">    68</i>
   <i type="int" name="IWAVPR">    11</i>
   <i type="int" name="NBANDS">    86</i>
   <i name="NELECT">    143.00000000</i>
   <i type="int" name="TURBO">     0</i>
   <i type="int" name="IRESTART">     0</i>
   <i type="int" name="NREBOOT">     0</i>
   <i type="int" name="NMIN">     0</i>
   <i name="EREF">      0.00000000</i>
   <separator name="electronic smearing" >
    <i type="int" name="ISMEAR">     0</i>
    <i name="SIGMA">      0.05000000</i>
    <i name="KSPACING">      0.50000000</i>
    <i type="logical" name="KGAMMA"> T  </i>
   </separator>
   <separator name="electronic projectors" >
    <i type="logical" name="LREAL"> T  </i>
    <v name="ROPT">     -0.00050000</v>
    <i type="int" name="LMAXPAW">  -100</i>
    <i type="int" name="LMAXMIX">     2</i>
    <i type="logical" name="NLSPLINE"> F  </i>
   </separator>
   <separator name="electronic startup" >
    <i type="int" name="ISTART">     0</i>
    <i type="int" name="ICHARG">     2</i>
    <i type="int" name="INIWAV">     1</i>
   </separator>
   <separator name="electronic spin" >
    <i type="int" name="ISPIN">     1</i>
    <i type="logical" name="LNONCOLLINEAR"> F  </i>
    <v name="MAGMOM">      1.00000000      1.00000000      1.00000000      1.00000000      1.00000000      1.00000000      1.00000000      1.00000000      1.00000000      1.00000000      1.00000000      1.00000000      1.00000000</v>
    <i name="NUPDOWN">     -1.00000000</i>
    <i type="logical" name="LSORBIT"> F  </i>
    <v name="SAXIS">      0.00000000      0.00000000      1.00000000</v>
    <i type="logical" name="LSPIRAL"> F  </i>
    <v name="QSPIRAL">      0.00000000      0.00000000      0.00000000</v>
    <i type="logical" name="LZEROZ"> F  </i>
   </separator>
   <separator name="electronic exchange-correlation" >
    <i type="logical" name="LASPH"> F  </i>
    <i type="logical" name="LMETAGGA"> F  </i>
   </separator>
   <separator name="electronic convergence" >
    <i type="int" name="NELM">   200</i>
    <i type="int" name="NELMDL">    -5</i>
    <i type="int" name="NELMIN">     2</i>
    <i name="ENINI">    400.00000000</i>
    <separator name="electronic convergence detail" >
     <i type="logical" name="LDIAG"> T  </i>
     <i type="logical" name="LSUBROT"> F  </i>
     <i name="WEIMIN">      0.00100000</i>
     <i name="EBREAK">      0.00000003</i>
     <i name="DEPER">      0.30000000</i>
     <i type="int" name="NRMM">     4</i>
     <i name="TIME">      0.40000000</i>
    </separator>
   </separator>
   <separator name="electronic mixer" >
    <i name="AMIX">      0.40000000</i>
    <i name="BMIX">      1.00000000</i>
    <i name="AMIN">      0.10000000</i>
    <i name="AMIX_MAG">      1.60000000</i>
    <i name="BMIX_MAG">      1.00000000</i>
    <separator name="electronic mixer details" >
     <i type="int" name="IMIX">     4</i>
     <i type="logical" name="MIXFIRST"> F  </i>
     <i type="int" name="MAXMIX">   -45</i>
     <i name="WC">    100.00000000</i>
     <i type="int" name="INIMIX">     1</i>
     <i type="int" name="MIXPRE">     1</i>
     <i type="int" name="MREMOVE">     5</i>
    </separator>
   </separator>
   <separator name="electronic dipolcorrection" >
    <i type="logical" name="LDIPOL"> F  </i>
    <i type="logical" name="LMONO"> F  </i>
    <i type="int" name="IDIPOL">     0</i>
    <i name="EPSILON">      1.00000000</i>
    <v name="DIPOL">   -100.00000000   -100.00000000   -100.00000000</v>
    <i name="EFIELD">      0.00000000</i>
   </separator>
  </separator>
  <separator name="grids" >
   <i type="int" name="NGX">   126</i>
   <i type="int" name="NGY">   140</i>
   <i type="int" name="NGZ">   126</i>
   <i type="int" name="NGXF">   252</i>
   <i type="int" name="NGYF">   280</i>
   <i type="int" name="NGZF">   252</i>
   <i type="logical" name="ADDGRID"> F  </i>
  </separator>
  <separator name="ionic" >
   <i type="int" name="NSW">  1000</i>
   <i type="int" name="IBRION">     2</i>
   <i type="int" name="MDALGO">     0</i>
   <i type="int" name="ISIF">     2</i>
   <i name="PSTRESS">      0.00000000</i>
   <i name="EDIFFG">     -0.01000000</i>
   <i type="int" name="NFREE">     1</i>
   <i name="POTIM">      0.50000000</i>
   <i name="SMASS">     -3.00000000</i>
   <i name="SCALEE">      1.00000000</i>
  </separator>
  <separator name="ionic md" >
   <i name="TEBEG">      0.00010000</i>
   <i name="TEEND">      0.00010000</i>
   <i type="int" name="NBLOCK">     1</i>
   <i type="int" name="KBLOCK">  1000</i>
   <i type="int" name="NPACO">   256</i>
   <i name="APACO">     16.00000000</i>
  </separator>
  <separator name="symmetry" >
   <i type="int" name="ISYM">     2</i>
   <i name="SYMPREC">      0.00001000</i>
  </separator>
  <separator name="dos" >
   <i type="int" name="LORBIT">     0</i>
   <v name="RWIGS">     -1.00000000</v>
   <i type="int" name="NEDOS">   301</i>
   <i name="EMIN">     10.00000000</i>
   <i name="EMAX">    -10.00000000</i>
   <i name="EFERMI">      0.00000000</i>
  </separator>
  <separator name="writing" >
   <i type="int" name="NWRITE">     2</i>
   <i type="logical" name="LWAVE"> F  </i>
   <i type="logical" name="LDOWNSAMPLE"> F  </i>
   <i type="logical" name="LCHARG"> F  </i>
   <i type="logical" name="LPARD"> F  </i>
   <i type="logical" name="LVTOT"> F  </i>
   <i type="logical" name="LVHAR"> F  </i>
   <i type="logical" name="LELF"> F  </i>
   <i type="logical" name="LOPTICS"> F  </i>
   <v name="STM">      0.00000000      0.00000000      0.00000000      0.00000000      0.00000000      0.00000000      0.00000000</v>
  </separator>
  <separator name="performance" >
   <i type="int" name="NPAR">     2</i>
   <i type="int" name="NSIM">     4</i>
   <i type="int" name="NBLK">    -1</i>
   <i type="logical" name="LPLANE"> T  </i>
   <i type="logical" name="LSCALAPACK"> T  </i>
   <i type="logical" name="LSCAAWARE"> F  </i>
   <i type="logical" name="LSCALU"> F  </i>
   <i type="logical" name="LASYNC"> F  </i>
   <i type="logical" name="LORBITALREAL"> F  </i>
  </separator>
  <separator name="miscellaneous" >
   <i type="int" name="IDIOT">     3</i>
   <i type="int" name="ISPECIAL">     0</i>
   <i type="logical" name="LMUSIC"> F  </i>
   <v name="POMASS">    107.86800000</v>
   <v name="DARWINR">      0.00000000</v>
   <v name="DARWINV">      1.00000000</v>
   <i type="logical" name="LCORR"> T  </i>
  </separator>
  <i type="logical" name="GGA_COMPAT"> T  </i>
  <i type="logical" name="LBERRY"> F  </i>
  <i type="int" name="ICORELEVEL">     0</i>
  <i type="logical" name="LDAU"> F  </i>
  <i type="int" name="I_CONSTRAINED_M">     0</i>
  <separator name="electronic exchange-correlation" >
   <i type="string" name="GGA">PE</i>
   <i type="int" name="VOSKOWN">     0</i>
   <i type="logical" name="LHFCALC"> F  </i>
   <i type="string" name="PRECFOCK"></i>
   <i type="logical" name="LSYMGRAD"> F  </i>
   <i type="logical" name="LHFONE"> F  </i>
   <i type="logical" name="LRHFCALC"> F  </i>
   <i type="logical" name="LTHOMAS"> F  </i>
   <i type="logical" name="LMODELHF"> F  </i>
   <i name="ENCUT4O">     -1.00000000</i>
   <i type="int" name="EXXOEP">     0</i>
   <i type="int" name="FOURORBIT">     0</i>
   <i name="AEXX">      0.00000000</i>
   <i name="HFALPHA">      0.00000000</i>
   <i name="MCALPHA">      0.00000000</i>
   <i name="ALDAX">      1.00000000</i>
   <i name="AGGAX">      1.00000000</i>
   <i name="ALDAC">      1.00000000</i>
   <i name="AGGAC">      1.00000000</i>
   <i type="int" name="NKREDX">     1</i>
   <i type="int" name="NKREDY">     1</i>
   <i type="int" name="NKREDZ">     1</i>
   <i type="logical" name="SHIFTRED"> F  </i>
   <i type="logical" name="ODDONLY"> F  </i>
   <i type="logical" name="EVENONLY"> F  </i>
   <i type="int" name="LMAXFOCK">     0</i>
   <i type="int" name="NMAXFOCKAE">     0</i>
   <i type="logical" name="LFOCKAEDFT"> F  </i>
   <i name="HFSCREEN">      0.00000000</i>
   <i name="HFSCREENC">      0.00000000</i>
   <i type="int" name="NBANDSGWLOW">     0</i>
  </separator>
  <separator name="vdW DFT" >
   <i type="logical" name="LUSE_VDW"> F  </i>
   <i name="Zab_VDW">     -0.84910000</i>
   <i name="PARAM1">      0.12340000</i>
   <i name="PARAM2">      1.00000000</i>
   <i name="PARAM3">      0.00000000</i>
  </separator>
  <separator name="model GW" >
   <i type="int" name="MODEL_GW">     0</i>
   <i name="MODEL_EPS0">    786.61541871</i>
   <i name="MODEL_ALPHA">      1.00000000</i>
  </separator>
  <separator name="linear response parameters" >
   <i type="logical" name="LEPSILON"> F  </i>
   <i type="logical" name="LRPA"> F  </i>
   <i type="logical" name="LNABLA"> F  </i>
   <i type="logical" name="LVEL"> F  </i>
   <i type="int" name="KINTER">     0</i>
   <i name="CSHIFT">      0.10000000</i>
   <i name="OMEGAMAX">     -1.00000000</i>
   <i name="DEG_THRESHOLD">      0.00200000</i>
   <i name="RTIME">     -0.10000000</i>
   <i name="WPLASMAI">      0.00000000</i>
   <v name="DFIELD">      0.00000000      0.00000000      0.00000000</v>
   <v name="WPLASMA">      0.00000000      0.00000000      0.00000000      0.00000000      0.00000000      0.00000000      0.00000000      0.00000000      0.00000000</v>
  </separator>
  <separator name="orbital magnetization" >
   <i type="logical" name="NUCIND"> F  </i>
   <v name="MAGPOS">      0.00000000      0.00000000      0.00000000</v>
   <i type="logical" name="LNICSALL"> T  </i>
   <i type="logical" name="ORBITALMAG"> F  </i>
   <i type="logical" name="LMAGBLOCH"> F  </i>
   <i type="logical" name="LCHIMAG"> F  </i>
   <i type="logical" name="LGAUGE"> T  </i>
   <i type="int" name="MAGATOM">     0</i>
   <v name="MAGDIPOL">      0.00000000      0.00000000      0.00000000</v>
   <v name="AVECCONST">      0.00000000      0.00000000      0.00000000</v>
  </separator>
  <separator name="response functions" >
   <i type="logical" name="LADDER"> F  </i>
   <i type="logical" name="LRPAFORCE"> F  </i>
   <i type="logical" name="LFXC"> F  </i>
   <i type="logical" name="LHARTREE"> T  </i>
   <i type="int" name="IBSE">     0</i>
   <v type="int" name="KPOINT">    -1     0     0     0</v>
   <i type="logical" name="LTCTE"> F  </i>
   <i type="logical" name="LTETE"> F  </i>
   <i type="logical" name="LTRIPLET"> F  </i>
   <i type="logical" name="LFXCEPS"> F  </i>
   <i type="logical" name="LFXHEG"> F  </i>
   <i type="int" name="NATURALO">     2</i>
   <i type="logical" name="L2ORDER"> F  </i>
   <i type="logical" name="LMP2LT"> F  </i>
   <i type="logical" name="LUSEW"> F  </i>
   <i name="ENCUTGW">     -2.00000000</i>
   <i name="ENCUTGWSOFT">     -2.00000000</i>
   <i name="ENCUTLF">     -1.00000000</i>
   <i type="int" name="LMAXMP2">    -1</i>
   <i name="SCISSOR">      0.00000000</i>
   <i type="int" name="NOMEGA">     0</i>
   <i type="int" name="NOMEGAR">     0</i>
   <i type="int" name="NBANDSGW">    -1</i>
   <i type="int" name="NBANDSO">    -1</i>
   <i type="int" name="NBANDSV">    -1</i>
   <i type="int" name="NELM">   200</i>
   <i type="int" name="NELMHF">     1</i>
   <i type="int" name="DIM">     3</i>
   <i type="int" name="ANTIRES">     0</i>
   <i name="OMEGAMAX">    -30.00000000</i>
   <i name="OMEGAMIN">    -30.00000000</i>
   <i name="OMEGATL">   -200.00000000</i>
   <i type="int" name="OMEGAGRID">   140</i>
   <i name="CSHIFT">     -0.10000000</i>
   <i type="logical" name="SELFENERGY"> F  </i>
   <i type="logical" name="LSPECTRAL"> F  </i>
   <i type="logical" name="LSPECTRALGW"> F  </i>
   <i type="logical" name="LSINGLES"> F  </i>
   <i type="logical" name="LFERMIGW"> F  </i>
   <i type="logical" name="ODDONLYGW"> F  </i>
   <i type="logical" name="EVENONLYGW"> F  </i>
   <i type="int" name="NKREDLFX">     1</i>
   <i type="int" name="NKREDLFY">     1</i>
   <i type="int" name="NKREDLFZ">     1</i>
   <i type="int" name="MAXMEM">  2800</i>
   <i type="int" name="TELESCOPE">     0</i>
   <i type="int" name="TAUPAR">     1</i>
   <i type="int" name="OMEGAPAR">    -1</i>
   <i name="LAMBDA">      1.00000000</i>
  </separator>
  <separator name="External order field" >
   <i name="OFIELD_KAPPA">      0.00000000</i>
   <v name="OFIELD_K">      0.00000000      0.00000000      0.00000000</v>
   <i name="OFIELD_Q6_NEAR">      0.00000000</i>
   <i name="OFIELD_Q6_FAR">      0.00000000</i>
   <i name="OFIELD_A">      0.00000000</i>
  </separator>
 </parameters>
 <atominfo>
  <atoms>      13 </atoms>
  <types>       1 </types>
  <array name="atoms" >
   <dimension dim="1">ion</dimension>
   <field type="string">element</field>
   <field type="int">atomtype</field>
   <set>
    <rc><c>Ag</c><c>   1</c></rc>
    <rc><c>Ag</c><c>   1</c></rc>
    <rc><c>Ag</c><c>   1</c></rc>
    <rc><c>Ag</c><c>   1</c></rc>
    <rc><c>Ag</c><c>   1</c></rc>
    <rc><c>Ag</c><c>   1</c></rc>
    <rc><c>Ag</c><c>   1</c></rc>
    <rc><c>Ag</c><c>   1</c></rc>
    <rc><c>Ag</c><c>   1</c></rc>
    <rc><c>Ag</c><c>   1</c></rc>
    <rc><c>Ag</c><c>   1</c></rc>
    <rc><c>Ag</c><c>   1</c></rc>
    <rc><c>Ag</c><c>   1</c></rc>
   </set>
  </array>
  <array name="atomtypes" >
   <dimension dim="1">type</dimension>
   <field type="int">atomspertype</field>
   <field type="string">element</field>
   <field>mass</field>
   <field>valence</field>
   <field type="string">pseudopotential</field>
   <set>
    <rc><c>  13</c><c>Ag</c><c>    107.86800000</c><c>     11.00000000</c><c> PAW_PBE Ag 06Sep2000                   </c></rc>
   </set>
  </array>
 </atominfo>
 <structure name="initialpos" >
  <crystal>
   <varray name="basis" >
    <v>      25.34036346       0.00000000       0.00000000 </v>
    <v>       0.00000000      26.60423055       0.00000000 </v>
    <v>       0.00000000       0.00000000      25.28081173 </v>
   </varray>
   <i name="volume">  17043.33407204 </i>
   <varray name="rec_basis" >
    <v>       0.03946273       0.00000000       0.00000000 </v>
    <v>       0.00000000       0.03758801       0.00000000 </v>
    <v>       0.00000000       0.00000000       0.03955569 </v>
   </varray>
  </crystal>
  <varray name="positions" >
   <v>       0.72208380       0.57215331       0.63732732 </v>
   <v>       0.59402232       0.52094950       0.51124383 </v>
   <v>       0.51133847       0.71966035       0.55824817 </v>
   <v>       0.60744167       0.68442459       0.72012999 </v>
   <v>       0.64850212       0.50160545       0.60683165 </v>
   <v>       0.58297493       0.74984531       0.63807497 </v>
   <v>       0.54945225       0.54825961       0.60747855 </v>
   <v>       0.54627039       0.61847560       0.51889009 </v>
   <v>       0.61616291       0.69634654       0.54942877 </v>
   <v>       0.62105636       0.58309025       0.68028080 </v>
   <v>       0.67539160       0.67114716       0.63627399 </v>
   <v>       0.54945121       0.64945425       0.63033470 </v>
   <v>       0.64569666       0.59814720       0.56321722 </v>
  </varray>
 </structure>
 <calculation>
  <scstep>
   <time name="dav">    2.71    2.90</time>
   <time name="total">    3.15    3.35</time>
   <energy>
    <i name="alphaZ">     17.60842833 </i>
    <i name="ewald">  20979.26315673 </i>
    <i name="hartreedc"> -33834.46922874 </i>
    <i name="XCdc">   -149.93495346 </i>
    <i name="pawpsdc">  11318.69952366 </i>
    <i name="pawaedc"> -10715.50934824 </i>
    <i name="eentropy">     -0.05613484 </i>
    <i name="bandstr">     75.87926813 </i>
    <i name="atom">  13486.25626889 </i>
    <i name="e_fr_energy">   1177.73698046 </i>
    <i name="e_wo_entrp">   1177.79311530 </i>
    <i name="e_0_energy">   1177.76504788 </i>
   </energy>
  </scstep>
  <scstep>
   <time name="dav">    4.18    4.46</time>
   <time name="total">    4.18    4.46</time>
   <energy>
    <i name="e_fr_energy">    689.08850583 </i>
    <i name="e_wo_entrp">    689.15938672 </i>
    <i name="e_0_energy">    689.12394628 </i>
   </energy>
  </scstep>
  <scstep>
   <time name="dav">    3.56    3.59</time>
   <time name="total">    3.56    3.59</time>
   <energy>
    <i name="e_fr_energy">    169.42981514 </i>
    <i name="e_wo_entrp">    169.45828620 </i>
    <i name="e_0_energy">    169.44405067 </i>
   </energy>
  </scstep>
  <scstep>
   <time name="dav">    3.19    3.33</time>
   <time name="total">    3.19    3.33</time>
   <energy>
    <i name="e_fr_energy">     -7.26775187 </i>
    <i name="e_wo_entrp">     -7.23954240 </i>
    <i name="e_0_energy">     -7.25364714 </i>
   </energy>
  </scstep>
  <scstep>
   <time name="dav">    2.52    2.57</time>
   <time name="total">    2.78    2.84</time>
   <energy>
    <i name="e_fr_energy">    -27.16519970 </i>
    <i name="e_wo_entrp">    -27.13699022 </i>
    <i name="e_0_energy">    -27.15109496 </i>
   </energy>
  </scstep>
  <scstep>
   <time name="diag">    0.48    0.51</time>
   <time name="diis">    1.78    1.85</time>
   <time name="orth">    0.04    0.04</time>
   <time name="total">    2.94    3.04</time>
   <energy>
    <i name="e_fr_energy">    -25.82477236 </i>
    <i name="e_wo_entrp">    -25.79656288 </i>
    <i name="e_0_energy">    -25.81066762 </i>
   </energy>
  </scstep>
  <scstep>
   <time name="diag">    0.49    0.49</time>
   <time name="diis">    1.72    1.89</time>
   <time name="orth">    0.04    0.04</time>
   <time name="total">    2.90    3.07</time>
   <energy>
    <i name="e_fr_energy">    -25.66996949 </i>
    <i name="e_wo_entrp">    -25.64176002 </i>
    <i name="e_0_energy">    -25.65586475 </i>
   </energy>
  </scstep>
  <scstep>
   <time name="diag">    0.60    0.64</time>
   <time name="diis">    1.72    1.72</time>
   <time name="orth">    0.04    0.04</time>
   <time name="total">    3.00    3.05</time>
   <energy>
    <i name="e_fr_energy">    -25.64639642 </i>
    <i name="e_wo_entrp">    -25.61818694 </i>
    <i name="e_0_energy">    -25.63229168 </i>
   </energy>
  </scstep>
  <scstep>
   <time name="diag">    0.54    0.64</time>
   <time name="diis">    1.74    1.75</time>
   <time name="orth">    0.04    0.04</time>
   <time name="total">    3.00    3.24</time>
   <energy>
    <i name="e_fr_energy">    -25.64315712 </i>
    <i name="e_wo_entrp">    -25.61494764 </i>
    <i name="e_0_energy">    -25.62905238 </i>
   </energy>
  </scstep>
  <scstep>
   <time name="diag">    0.49    0.49</time>
   <time name="diis">    1.67    1.68</time>
   <time name="orth">    0.04    0.04</time>
   <time name="total">    2.93    3.08</time>
   <energy>
    <i name="e_fr_energy">    -25.64324014 </i>
    <i name="e_wo_entrp">    -25.61503066 </i>
    <i name="e_0_energy">    -25.62913540 </i>
   </energy>
  </scstep>
  <scstep>
   <time name="diag">    0.48    0.48</time>
   <time name="diis">    1.68    1.86</time>
   <time name="orth">    0.04    0.04</time>
   <time name="total">    2.85    3.04</time>
   <energy>
    <i name="e_fr_energy">    -25.64512990 </i>
    <i name="e_wo_entrp">    -25.61692042 </i>
    <i name="e_0_energy">    -25.63102516 </i>
   </energy>
  </scstep>
  <scstep>
   <time name="diag">    0.48    0.48</time>
   <time name="diis">    1.76    1.88</time>
   <time name="orth">    0.04    0.04</time>
   <time name="total">    2.93    3.06</time>
   <energy>
    <i name="e_fr_energy">    -25.64727605 </i>
    <i name="e_wo_entrp">    -25.61906657 </i>
    <i name="e_0_energy">    -25.63317131 </i>
   </energy>
  </scstep>
  <scstep>
   <time name="diag">    0.47    0.64</time>
   <time name="diis">    1.72    1.73</time>
   <time name="orth">    0.04    0.04</time>
   <time name="total">    2.88    3.06</time>
   <energy>
    <i name="e_fr_energy">    -25.64898350 </i>
    <i name="e_wo_entrp">    -25.62077402 </i>
    <i name="e_0_energy">    -25.63487876 </i>
   </energy>
  </scstep>
  <scstep>
   <time name="diag">    0.52    0.52</time>
   <time name="diis">    1.83    1.91</time>
   <time name="orth">    0.04    0.04</time>
   <time name="total">    3.02    3.28</time>
   <energy>
    <i name="e_fr_energy">    -25.65054619 </i>
    <i name="e_wo_entrp">    -25.62233671 </i>
    <i name="e_0_energy">    -25.63644145 </i>
   </energy>
  </scstep>
  <scstep>
   <time name="diag">    0.49    0.49</time>
   <time name="diis">    1.26    1.26</time>
   <time name="orth">    0.04    0.04</time>
   <time name="total">    2.48    2.50</time>
   <energy>
    <i name="e_fr_energy">    -25.65146121 </i>
    <i name="e_wo_entrp">    -25.62325173 </i>
    <i name="e_0_energy">    -25.63735647 </i>
   </energy>
  </scstep>
  <scstep>
   <time name="diag">    0.53    0.73</time>
   <time name="diis">    1.11    1.12</time>
   <time name="orth">    0.04    0.52</time>
   <time name="total">    2.34    3.03</time>
   <energy>
    <i name="e_fr_energy">    -25.65187338 </i>
    <i name="e_wo_entrp">    -25.62366390 </i>
    <i name="e_0_energy">    -25.63776864 </i>
   </energy>
  </scstep>
  <scstep>
   <time name="diag">    0.48    0.49</time>
   <time name="diis">    1.16    1.16</time>
   <time name="orth">    0.04    0.04</time>
   <time name="total">    2.36    2.37</time>
   <energy>
    <i name="e_fr_energy">    -25.65223611 </i>
    <i name="e_wo_entrp">    -25.62402663 </i>
    <i name="e_0_energy">    -25.63813137 </i>
   </energy>
  </scstep>
  <scstep>
   <time name="diag">    0.59    0.66</time>
   <time name="diis">    1.27    1.28</time>
   <time name="orth">    0.04    0.04</time>
   <time name="total">    2.56    2.64</time>
   <energy>
    <i name="e_fr_energy">    -25.65233031 </i>
    <i name="e_wo_entrp">    -25.62412084 </i>
    <i name="e_0_energy">    -25.63822558 </i>
   </energy>
  </scstep>
  <scstep>
   <time name="diag">    0.48    0.48</time>
   <time name="diis">    1.14    1.14</time>
   <time name="orth">    0.04    0.04</time>
   <time name="total">    2.32    2.34</time>
   <energy>
    <i name="e_fr_energy">    -25.65241832 </i>
    <i name="e_wo_entrp">    -25.62420884 </i>
    <i name="e_0_energy">    -25.63831358 </i>
   </energy>
  </scstep>
  <scstep>
   <time name="diag">    0.53    0.67</time>
   <time name="diis">    0.75    0.75</time>
   <time name="orth">    0.04    0.04</time>
   <time name="total">    1.99    2.13</time>
   <energy>
    <i name="e_fr_energy">    -25.65244153 </i>
    <i name="e_wo_entrp">    -25.62423205 </i>
    <i name="e_0_energy">    -25.63833679 </i>
   </energy>
  </scstep>
  <scstep>
   <time name="diag">    0.48    0.49</time>
   <time name="diis">    1.04    1.04</time>
   <time name="orth">    0.04    0.04</time>
   <time name="total">    2.23    2.36</time>
   <energy>
    <i name="e_fr_energy">    -25.65245734 </i>
    <i name="e_wo_entrp">    -25.62424786 </i>
    <i name="e_0_energy">    -25.63835260 </i>
   </energy>
  </scstep>
  <scstep>
   <time name="diag">    0.49    0.49</time>
   <time name="diis">    0.64    0.75</time>
   <time name="orth">    0.04    0.12</time>
   <time name="total">    1.62    1.82</time>
   <energy>
    <i name="alphaZ">     17.60842833 </i>
    <i name="ewald">  20979.26315673 </i>
    <i name="hartreedc"> -33842.54657587 </i>
    <i name="XCdc">   -152.72879643 </i>
    <i name="pawpsdc">  11316.28918044 </i>
    <i name="pawaedc"> -10731.74138750 </i>
    <i name="eentropy">     -0.02820948 </i>
    <i name="bandstr">  -1098.02452532 </i>
    <i name="atom">  13486.25626889 </i>
    <i name="e_fr_energy">    -25.65246021 </i>
    <i name="e_wo_entrp">    -25.62425074 </i>
    <i name="e_0_energy">    -25.63835548 </i>
   </energy>
  </scstep>
  <structure>
   <crystal>
    <varray name="basis" >
     <v>      25.34036346       0.00000000       0.00000000 </v>
     <v>       0.00000000      26.60423055       0.00000000 </v>
     <v>       0.00000000       0.00000000      25.28081173 </v>
    </varray>
    <i name="volume">  17043.33407204 </i>
    <varray name="rec_basis" >
     <v>       0.03946273       0.00000000       0.00000000 </v>
     <v>       0.00000000       0.03758801       0.00000000 </v>
     <v>       0.00000000       0.00000000       0.03955569 </v>
    </varray>
   </crystal>
   <varray name="positions" >
    <v>       0.72208380       0.57215331       0.63732732 </v>
    <v>       0.59402232       0.52094950       0.51124383 </v>
    <v>       0.51133847       0.71966035       0.55824817 </v>
    <v>       0.60744167       0.68442459       0.72012999 </v>
    <v>       0.64850212       0.50160545       0.60683165 </v>
    <v>       0.58297493       0.74984531       0.63807497 </v>
    <v>       0.54945225       0.54825961       0.60747855 </v>
    <v>       0.54627039       0.61847560       0.51889009 </v>
    <v>       0.61616291       0.69634654       0.54942877 </v>
    <v>       0.62105636       0.58309025       0.68028080 </v>
    <v>       0.67539160       0.67114716       0.63627399 </v>
    <v>       0.54945121       0.64945425       0.63033470 </v>
    <v>       0.64569666       0.59814720       0.56321722 </v>
   </varray>
  </structure>
  <varray name="forces" >
   <v>       0.12082924       0.05259074       0.14034593 </v>
   <v>      -0.02341591      -0.05997314      -0.16731935 </v>
   <v>      -0.15503163      -0.07272175      -0.05869070 </v>
   <v>      -0.03732134      -0.04703962       0.03524054 </v>
   <v>      -0.00728971      -0.18344693       0.01068583 </v>
   <v>       0.08539348       0.03892409       0.03814585 </v>
   <v>      -0.08064369      -0.03710611      -0.11001815 </v>
   <v>      -0.12967319       0.05891372       0.13814285 </v>
   <v>       0.04969422       0.17342779      -0.15487244 </v>
   <v>       0.11215768       0.16365921       0.01978310 </v>
   <v>      -0.08394967      -0.00125565       0.11580575 </v>
   <v>       0.12192541       0.08678566       0.01210919 </v>
   <v>       0.02732510      -0.17275801      -0.01935840 </v>
  </varray>
  <varray name="stress" >
   <v>       0.00880768      -0.00756245       0.06623195 </v>
   <v>      -0.00756245       0.02798105       0.03337213 </v>
   <v>       0.06623195       0.03337213       0.01107433 </v>
  </varray>
  <energy>
   <i name="e_fr_energy">    -25.65246021 </i>
   <i name="e_wo_entrp">    -25.63835548 </i>
   <i name="e_0_energy">     -0.02820948 </i>
  </energy>
  <time name="totalsc">   65.61   69.18</time>
 </calculation>
 <calculation>
  <scstep>
   <time name="dav">    2.51    2.77</time>
   <time name="total">    3.16    3.42</time>
   <energy>
    <i name="alphaZ">     17.60842833 </i>
    <i name="ewald">  20941.35298161 </i>
    <i name="hartreedc"> -33804.88233455 </i>
    <i name="XCdc">   -152.80177056 </i>
    <i name="pawpsdc">  11316.28789966 </i>
    <i name="pawaedc"> -10731.73880386 </i>
    <i name="eentropy">     -0.02820948 </i>
    <i name="bandstr">  -1097.72057011 </i>
    <i name="atom">  13486.25626889 </i>
    <i name="e_fr_energy">    -25.66611008 </i>
    <i name="e_wo_entrp">    -25.63790060 </i>
    <i name="e_0_energy">    -25.65200534 </i>
   </energy>
  </scstep>
  <scstep>
   <time name="diag">    0.48    0.50</time>
   <time name="diis">    1.73    1.84</time>
   <time name="orth">    0.04    0.04</time>
   <time name="total">    2.95    3.08</time>
   <energy>
    <i name="e_fr_energy">    -25.66900078 </i>
    <i name="e_wo_entrp">    -25.64079130 </i>
    <i name="e_0_energy">    -25.65489604 </i>
   </energy>
  </scstep>
  <scstep>
   <time name="diag">    0.50    0.61</time>
   <time name="diis">    1.75    1.77</time>
   <time name="orth">    0.04    0.04</time>
   <time name="total">    2.93    3.07</time>
   <energy>
    <i name="e_fr_energy">    -25.66898369 </i>
    <i name="e_wo_entrp">    -25.64077421 </i>
    <i name="e_0_energy">    -25.65487895 </i>
   </energy>
  </scstep>
  <scstep>
   <time name="diag">    0.49    0.49</time>
   <time name="diis">    1.74    1.91</time>
   <time name="orth">    0.04    0.04</time>
   <time name="total">    2.92    3.09</time>
   <energy>
    <i name="e_fr_energy">    -25.66887242 </i>
    <i name="e_wo_entrp">    -25.64066294 </i>
    <i name="e_0_energy">    -25.65476768 </i>
   </energy>
  </scstep>
  <scstep>
   <time name="diag">    0.49    0.49</time>
   <time name="diis">    1.73    1.74</time>
   <time name="orth">    0.04    0.04</time>
   <time name="total">    2.91    2.92</time>
   <energy>
    <i name="e_fr_energy">    -25.66886863 </i>
    <i name="e_wo_entrp">    -25.64065915 </i>
    <i name="e_0_energy">    -25.65476389 </i>
   </energy>
  </scstep>
  <scstep>
   <time name="diag">    0.52    0.67</time>
   <time name="diis">    1.07    1.25</time>
   <time name="orth">    0.04    0.04</time>
   <time name="total">    2.06    2.39</time>
   <energy>
    <i name="alphaZ">     17.60842833 </i>
    <i name="ewald">  20941.35298161 </i>
    <i name="hartreedc"> -33805.47634963 </i>
    <i name="XCdc">   -152.78745724 </i>
    <i name="pawpsdc">  11314.25379845 </i>
    <i name="pawaedc"> -10729.55146277 </i>
    <i name="eentropy">     -0.02820948 </i>
    <i name="bandstr">  -1097.29685900 </i>
    <i name="atom">  13486.25626889 </i>
    <i name="e_fr_energy">    -25.66886083 </i>
    <i name="e_wo_entrp">    -25.64065135 </i>
    <i name="e_0_energy">    -25.65475609 </i>
   </energy>
  </scstep>
  <structure>
   <crystal>
    <varray name="basis" >
     <v>      25.34036346       0.00000000       0.00000000 </v>
     <v>       0.00000000      26.60423055       0.00000000 </v>
     <v>       0.00000000       0.00000000      25.28081173 </v>
    </varray>
    <i name="volume">  17043.33407204 </i>
    <varray name="rec_basis" >
     <v>       0.03946273       0.00000000       0.00000000 </v>
     <v>       0.00000000       0.03758801       0.00000000 </v>
     <v>       0.00000000       0.00000000       0.03955569 </v>
    </varray>
   </crystal>
   <varray name="positions" >
    <v>       0.72231384       0.57224868       0.63759514 </v>
    <v>       0.59397774       0.52084074       0.51092454 </v>
    <v>       0.51104332       0.71952848       0.55813617 </v>
    <v>       0.60737062       0.68433929       0.72019724 </v>
    <v>       0.64848824       0.50127280       0.60685204 </v>
    <v>       0.58313750       0.74991589       0.63814776 </v>
    <v>       0.54929872       0.54819232       0.60726860 </v>
    <v>       0.54602352       0.61858243       0.51915370 </v>
    <v>       0.61625751       0.69666102       0.54913323 </v>
    <v>       0.62126989       0.58338703       0.68031855 </v>
    <v>       0.67523178       0.67114488       0.63649498 </v>
    <v>       0.54968333       0.64961162       0.63035781 </v>
    <v>       0.64574868       0.59783393       0.56318028 </v>
   </varray>
  </structure>
  <varray name="forces" >
   <v>       0.07983392       0.03851644       0.11906527 </v>
   <v>      -0.02120718      -0.04451431      -0.13608998 </v>
   <v>      -0.11678889      -0.07676044      -0.03938443 </v>
   <v>      -0.04312822      -0.03418681       0.05682920 </v>
   <v>      -0.01305231      -0.12561613       0.01529964 </v>
   <v>       0.07680925       0.02855549       0.01154022 </v>
   <v>      -0.03008697      -0.02172660      -0.08667546 </v>
   <v>      -0.10527482       0.05556533       0.13516293 </v>
   <v>       0.04870501       0.12086659      -0.12120346 </v>
   <v>       0.09650883       0.11479111      -0.01709583 </v>
   <v>      -0.09093761      -0.00662917       0.06847030 </v>
   <v>       0.10995875       0.07365412      -0.00245106 </v>
   <v>       0.00866024      -0.12251562      -0.00346734 </v>
  </varray>
  <varray name="stress" >
   <v>      -0.02352746      -0.00488570       0.04890956 </v>
   <v>      -0.00488570      -0.00552266       0.02545753 </v>
   <v>       0.04890956       0.02545753      -0.01429515 </v>
  </varray>
  <energy>
   <i name="e_fr_energy">    -25.66886083 </i>
   <i name="e_wo_entrp">    -25.65475609 </i>
   <i name="e_0_energy">     -0.02820948 </i>
  </energy>
  <time name="totalsc">   21.28   22.46</time>
 </calculation>
 <calculation>
  <scstep>
   <time name="dav">    2.33    2.36</time>
   <time name="total">    2.94    3.14</time>
   <energy>
    <i name="alphaZ">     17.60842833 </i>
    <i name="ewald">  20862.74430387 </i>
    <i name="hartreedc"> -33727.34662301 </i>
    <i name="XCdc">   -152.93359177 </i>
    <i name="pawpsdc">  11314.19981174 </i>
    <i name="pawaedc"> -10729.49439189 </i>
    <i name="eentropy">     -0.02820948 </i>
    <i name="bandstr">  -1096.68338625 </i>
    <i name="atom">  13486.25626889 </i>
    <i name="e_fr_energy">    -25.67738957 </i>
    <i name="e_wo_entrp">    -25.64918009 </i>
    <i name="e_0_energy">    -25.66328483 </i>
   </energy>
  </scstep>
  <scstep>
   <time name="diag">    0.49    0.49</time>
   <time name="diis">    1.82    1.97</time>
   <time name="orth">    0.04    0.04</time>
   <time name="total">    3.00    3.15</time>
   <energy>
    <i name="e_fr_energy">    -25.68998438 </i>
    <i name="e_wo_entrp">    -25.66177490 </i>
    <i name="e_0_energy">    -25.67587964 </i>
   </energy>
  </scstep>
  <scstep>
   <time name="diag">    0.49    0.49</time>
   <time name="diis">    1.74    1.74</time>
   <time name="orth">    0.04    0.04</time>
   <time name="total">    2.97    3.00</time>
   <energy>
    <i name="e_fr_energy">    -25.68991073 </i>
    <i name="e_wo_entrp">    -25.66170125 </i>
    <i name="e_0_energy">    -25.67580599 </i>
   </energy>
  </scstep>
  <scstep>
   <time name="diag">    0.49    0.49</time>
   <time name="diis">    1.86    1.89</time>
   <time name="orth">    0.04    0.04</time>
   <time name="total">    3.08    3.28</time>
   <energy>
    <i name="e_fr_energy">    -25.68943650 </i>
    <i name="e_wo_entrp">    -25.66122702 </i>
    <i name="e_0_energy">    -25.67533176 </i>
   </energy>
  </scstep>
  <scstep>
   <time name="diag">    0.49    0.49</time>
   <time name="diis">    1.77    1.84</time>
   <time name="orth">    0.04    0.04</time>
   <time name="total">    2.95    3.02</time>
   <energy>
    <i name="e_fr_energy">    -25.68943292 </i>
    <i name="e_wo_entrp">    -25.66122344 </i>
    <i name="e_0_energy">    -25.67532818 </i>
   </energy>
  </scstep>
  <scstep>
   <time name="diag">    0.54    0.68</time>
   <time name="diis">    1.70    1.70</time>
   <time name="orth">    0.04    0.04</time>
   <time name="total">    2.99    3.21</time>
   <energy>
    <i name="e_fr_energy">    -25.68939436 </i>
    <i name="e_wo_entrp">    -25.66118488 </i>
    <i name="e_0_energy">    -25.67528962 </i>
   </energy>
  </scstep>
  <scstep>
   <time name="diag">    0.49    0.49</time>
   <time name="diis">    1.01    1.65</time>
   <time name="orth">    0.04    0.04</time>
   <time name="total">    1.97    2.60</time>
   <energy>
    <i name="alphaZ">     17.60842833 </i>
    <i name="ewald">  20862.74430387 </i>
    <i name="hartreedc"> -33728.58566491 </i>
    <i name="XCdc">   -152.90435824 </i>
    <i name="pawpsdc">  11310.14705504 </i>
    <i name="pawaedc"> -10725.12791768 </i>
    <i name="eentropy">     -0.02820948 </i>
    <i name="bandstr">  -1095.79930326 </i>
    <i name="atom">  13486.25626889 </i>
    <i name="e_fr_energy">    -25.68939745 </i>
    <i name="e_wo_entrp">    -25.66118797 </i>
    <i name="e_0_energy">    -25.67529271 </i>
   </energy>
  </scstep>
  <structure>
   <crystal>
    <varray name="basis" >
     <v>      25.34036346       0.00000000       0.00000000 </v>
     <v>       0.00000000      26.60423055       0.00000000 </v>
     <v>       0.00000000       0.00000000      25.28081173 </v>
    </varray>
    <i name="volume">  17043.33407204 </i>
    <varray name="rec_basis" >
     <v>       0.03946273       0.00000000       0.00000000 </v>
     <v>       0.00000000       0.03758801       0.00000000 </v>
     <v>       0.00000000       0.00000000       0.03955569 </v>
    </varray>
   </crystal>
   <varray name="positions" >
    <v>       0.72279248       0.57244711       0.63815240 </v>
    <v>       0.59388498       0.52061446       0.51026016 </v>
    <v>       0.51042919       0.71925409       0.55790313 </v>
    <v>       0.60722278       0.68416180       0.72033717 </v>
    <v>       0.64845936       0.50058062       0.60689447 </v>
    <v>       0.58347577       0.75006276       0.63829923 </v>
    <v>       0.54897927       0.54805232       0.60683176 </v>
    <v>       0.54550984       0.61880472       0.51970223 </v>
    <v>       0.61645437       0.69731539       0.54851829 </v>
    <v>       0.62171418       0.58400454       0.68039711 </v>
    <v>       0.67489923       0.67114014       0.63695480 </v>
    <v>       0.55016632       0.64993908       0.63040589 </v>
    <v>       0.64585693       0.59718209       0.56310342 </v>
   </varray>
  </structure>
  <varray name="forces" >
   <v>       0.00310737       0.00708481       0.06848697 </v>
   <v>      -0.01800928      -0.01712342      -0.07725195 </v>
   <v>      -0.04935798      -0.07228429       0.00019150 </v>
   <v>      -0.05788489       0.00255155       0.09194417 </v>
   <v>      -0.01051974      -0.02672206       0.02161466 </v>
   <v>       0.05997743       0.01594850      -0.03154345 </v>
   <v>       0.06131192       0.01807261      -0.04946444 </v>
   <v>      -0.06253117       0.04161228       0.12550771 </v>
   <v>       0.03844730       0.01231326      -0.03350476 </v>
   <v>       0.04532622       0.00616473      -0.07012581 </v>
   <v>      -0.08931764      -0.01290840      -0.03643181 </v>
   <v>       0.09038523       0.04652962      -0.04863789 </v>
   <v>      -0.01093478      -0.02123919       0.03921508 </v>
  </varray>
  <varray name="stress" >
   <v>      -0.07957276      -0.00146610       0.01469029 </v>
   <v>      -0.00146610      -0.06379972       0.01010363 </v>
   <v>       0.01469029       0.01010363      -0.05874445 </v>
  </varray>
  <energy>
   <i name="e_fr_energy">    -25.68939745 </i>
   <i name="e_wo_entrp">    -25.67529271 </i>
   <i name="e_0_energy">     -0.02820948 </i>
  </energy>
  <time name="totalsc">   24.17   25.81</time>
 </calculation>
 <calculation>
  <scstep>
   <time name="dav">    2.33    2.35</time>
   <time name="total">    3.11    3.13</time>
   <energy>
    <i name="alphaZ">     17.60842833 </i>
    <i name="ewald">  20706.66014514 </i>
    <i name="hartreedc"> -33573.31804999 </i>
    <i name="XCdc">   -153.17495754 </i>
    <i name="pawpsdc">  11310.12148538 </i>
    <i name="pawaedc"> -10725.10038676 </i>
    <i name="eentropy">     -0.02820948 </i>
    <i name="bandstr">  -1094.65464213 </i>
    <i name="atom">  13486.25626889 </i>
    <i name="e_fr_energy">    -25.62991816 </i>
    <i name="e_wo_entrp">    -25.60170868 </i>
    <i name="e_0_energy">    -25.61581342 </i>
   </energy>
  </scstep>
  <scstep>
   <time name="diag">    0.49    0.49</time>
   <time name="diis">    1.73    1.93</time>
   <time name="orth">    0.04    0.04</time>
   <time name="total">    2.94    3.15</time>
   <energy>
    <i name="e_fr_energy">    -25.68233334 </i>
    <i name="e_wo_entrp">    -25.65412386 </i>
    <i name="e_0_energy">    -25.66822860 </i>
   </energy>
  </scstep>
  <scstep>
   <time name="diag">    0.49    0.49</time>
   <time name="diis">    1.73    1.73</time>
   <time name="orth">    0.04    0.04</time>
   <time name="total">    2.91    2.91</time>
   <energy>
    <i name="e_fr_energy">    -25.68202025 </i>
    <i name="e_wo_entrp">    -25.65381077 </i>
    <i name="e_0_energy">    -25.66791551 </i>
   </energy>
  </scstep>
  <scstep>
   <time name="diag">    0.49    0.50</time>
   <time name="diis">    1.72    2.00</time>
   <time name="orth">    0.04    0.04</time>
   <time name="total">    2.90    3.18</time>
   <energy>
    <i name="e_fr_energy">    -25.68023186 </i>
    <i name="e_wo_entrp">    -25.65202238 </i>
    <i name="e_0_energy">    -25.66612712 </i>
   </energy>
  </scstep>
  <scstep>
   <time name="diag">    0.49    0.49</time>
   <time name="diis">    1.69    1.70</time>
   <time name="orth">    0.04    0.04</time>
   <time name="total">    2.87    2.87</time>
   <energy>
    <i name="e_fr_energy">    -25.68012623 </i>
    <i name="e_wo_entrp">    -25.65191675 </i>
    <i name="e_0_energy">    -25.66602149 </i>
   </energy>
  </scstep>
  <scstep>
   <time name="diag">    0.52    0.52</time>
   <time name="diis">    1.69    1.69</time>
   <time name="orth">    0.04    0.04</time>
   <time name="total">    3.00    3.25</time>
   <energy>
    <i name="e_fr_energy">    -25.67997873 </i>
    <i name="e_wo_entrp">    -25.65176925 </i>
    <i name="e_0_energy">    -25.66587399 </i>
   </energy>
  </scstep>
  <scstep>
   <time name="diag">    0.48    0.49</time>
   <time name="diis">    1.13    1.13</time>
   <time name="orth">    0.04    0.04</time>
   <time name="total">    2.41    2.62</time>
   <energy>
    <i name="e_fr_energy">    -25.67999106 </i>
    <i name="e_wo_entrp">    -25.65178158 </i>
    <i name="e_0_energy">    -25.66588632 </i>
   </energy>
  </scstep>
  <scstep>
   <time name="diag">    0.49    0.49</time>
   <time name="diis">    1.05    1.05</time>
   <time name="orth">    0.04    0.04</time>
   <time name="total">    2.24    2.25</time>
   <energy>
    <i name="e_fr_energy">    -25.68000266 </i>
    <i name="e_wo_entrp">    -25.65179318 </i>
    <i name="e_0_energy">    -25.66589792 </i>
   </energy>
  </scstep>
  <scstep>
   <time name="diag">    0.48    0.49</time>
   <time name="diis">    1.03    1.03</time>
   <time name="orth">    0.04    0.04</time>
   <time name="total">    2.19    2.20</time>
   <energy>
    <i name="e_fr_energy">    -25.68001710 </i>
    <i name="e_wo_entrp">    -25.65180762 </i>
    <i name="e_0_energy">    -25.66591236 </i>
   </energy>
  </scstep>
  <scstep>
   <time name="diag">    0.59    0.70</time>
   <time name="diis">    1.06    1.06</time>
   <time name="orth">    0.04    0.04</time>
   <time name="total">    2.32    2.45</time>
   <energy>
    <i name="e_fr_energy">    -25.68004007 </i>
    <i name="e_wo_entrp">    -25.65183060 </i>
    <i name="e_0_energy">    -25.66593533 </i>
   </energy>
  </scstep>
  <scstep>
   <time name="diag">    0.48    0.49</time>
   <time name="diis">    1.08    1.08</time>
   <time name="orth">    0.04    0.04</time>
   <time name="total">    2.25    2.26</time>
   <energy>
    <i name="e_fr_energy">    -25.68005679 </i>
    <i name="e_wo_entrp">    -25.65184731 </i>
    <i name="e_0_energy">    -25.66595205 </i>
   </energy>
  </scstep>
  <scstep>
   <time name="diag">    0.50    0.50</time>
   <time name="diis">    0.86    0.99</time>
   <time name="orth">    0.04    0.04</time>
   <time name="total">    1.82    1.96</time>
   <energy>
    <i name="alphaZ">     17.60842833 </i>
    <i name="ewald">  20706.66014514 </i>
    <i name="hartreedc"> -33575.85458163 </i>
    <i name="XCdc">   -153.11743485 </i>
    <i name="pawpsdc">  11303.39422696 </i>
    <i name="pawaedc"> -10717.80214803 </i>
    <i name="eentropy">     -0.02820948 </i>
    <i name="bandstr">  -1092.79676154 </i>
    <i name="atom">  13486.25626889 </i>
    <i name="e_fr_energy">    -25.68006620 </i>
    <i name="e_wo_entrp">    -25.65185672 </i>
    <i name="e_0_energy">    -25.66596146 </i>
   </energy>
  </scstep>
  <structure>
   <crystal>
    <varray name="basis" >
     <v>      25.34036346       0.00000000       0.00000000 </v>
     <v>       0.00000000      26.60423055       0.00000000 </v>
     <v>       0.00000000       0.00000000      25.28081173 </v>
    </varray>
    <i name="volume">  17043.33407204 </i>
    <varray name="rec_basis" >
     <v>       0.03946273       0.00000000       0.00000000 </v>
     <v>       0.00000000       0.03758801       0.00000000 </v>
     <v>       0.00000000       0.00000000       0.03955569 </v>
    </varray>
   </crystal>
   <varray name="positions" >
    <v>       0.72374978       0.57284398       0.63926694 </v>
    <v>       0.59369947       0.52016188       0.50893142 </v>
    <v>       0.50920092       0.71870531       0.55743705 </v>
    <v>       0.60692709       0.68380682       0.72061702 </v>
    <v>       0.64840161       0.49919627       0.60697933 </v>
    <v>       0.58415232       0.75035649       0.63860216 </v>
    <v>       0.54834035       0.54777230       0.60595806 </v>
    <v>       0.54448248       0.61924930       0.52079927 </v>
    <v>       0.61684808       0.69862413       0.54728839 </v>
    <v>       0.62260277       0.58523956       0.68055421 </v>
    <v>       0.67423412       0.67113067       0.63787446 </v>
    <v>       0.55113229       0.65059399       0.63050206 </v>
    <v>       0.64607341       0.59587840       0.56294968 </v>
   </varray>
  </structure>
  <varray name="forces" >
   <v>      -0.11810121      -0.04284060       0.00148635 </v>
   <v>      -0.02680817       0.05605081       0.03396200 </v>
   <v>       0.07274296      -0.08232737       0.07006070 </v>
   <v>      -0.09870352       0.06743835       0.18883824 </v>
   <v>      -0.02088897       0.13817759       0.01833924 </v>
   <v>       0.03596325      -0.00136784      -0.10516202 </v>
   <v>       0.22325336       0.09369406       0.02409355 </v>
   <v>       0.02944660       0.02014668       0.10182948 </v>
   <v>       0.00697976      -0.16693566       0.12097880 </v>
   <v>      -0.03213037      -0.20575056      -0.16229930 </v>
   <v>      -0.06787903      -0.00388838      -0.25482147 </v>
   <v>       0.05938623      -0.00253031      -0.13981029 </v>
   <v>      -0.06326089       0.13013325       0.10250471 </v>
  </varray>
  <varray name="stress" >
   <v>      -0.18472271       0.00689256      -0.04477572 </v>
   <v>       0.00689256      -0.17006496      -0.01524280 </v>
   <v>      -0.04477572      -0.01524280      -0.13925233 </v>
  </varray>
  <energy>
   <i name="e_fr_energy">    -25.68006620 </i>
   <i name="e_wo_entrp">    -25.66596146 </i>
   <i name="e_0_energy">     -0.02820948 </i>
  </energy>
  <time name="totalsc">   35.18   36.46</time>
 </calculation>
 <calculation>
  <scstep>
   <time name="dav">    2.28    2.28</time>
   <time name="total">    3.14    3.16</time>
   <energy>
    <i name="alphaZ">     17.60842833 </i>
    <i name="ewald">  20805.34252280 </i>
    <i name="hartreedc"> -33674.19315299 </i>
    <i name="XCdc">   -152.94503835 </i>
    <i name="pawpsdc">  11303.38501704 </i>
    <i name="pawaedc"> -10717.79270470 </i>
    <i name="eentropy">     -0.02820948 </i>
    <i name="bandstr">  -1093.30646519 </i>
    <i name="atom">  13486.25626889 </i>
    <i name="e_fr_energy">    -25.67333365 </i>
    <i name="e_wo_entrp">    -25.64512417 </i>
    <i name="e_0_energy">    -25.65922891 </i>
   </energy>
  </scstep>
  <scstep>
   <time name="diag">    0.49    0.49</time>
   <time name="diis">    1.97    2.06</time>
   <time name="orth">    0.04    0.04</time>
   <time name="total">    3.15    3.24</time>
   <energy>
    <i name="e_fr_energy">    -25.69404337 </i>
    <i name="e_wo_entrp">    -25.66583389 </i>
    <i name="e_0_energy">    -25.67993863 </i>
   </energy>
  </scstep>
  <scstep>
   <time name="diag">    0.51    0.51</time>
   <time name="diis">    1.72    1.72</time>
   <time name="orth">    0.04    0.04</time>
   <time name="total">    2.92    2.94</time>
   <energy>
    <i name="e_fr_energy">    -25.69395051 </i>
    <i name="e_wo_entrp">    -25.66574103 </i>
    <i name="e_0_energy">    -25.67984577 </i>
   </energy>
  </scstep>
  <scstep>
   <time name="diag">    0.51    0.51</time>
   <time name="diis">    1.79    1.95</time>
   <time name="orth">    0.04    0.04</time>
   <time name="total">    2.99    3.16</time>
   <energy>
    <i name="e_fr_energy">    -25.69329059 </i>
    <i name="e_wo_entrp">    -25.66508111 </i>
    <i name="e_0_energy">    -25.67918585 </i>
   </energy>
  </scstep>
  <scstep>
   <time name="diag">    0.49    0.49</time>
   <time name="diis">    1.74    1.88</time>
   <time name="orth">    0.04    0.04</time>
   <time name="total">    3.00    3.21</time>
   <energy>
    <i name="e_fr_energy">    -25.69330255 </i>
    <i name="e_wo_entrp">    -25.66509307 </i>
    <i name="e_0_energy">    -25.67919781 </i>
   </energy>
  </scstep>
  <scstep>
   <time name="diag">    0.49    0.49</time>
   <time name="diis">    1.69    1.70</time>
   <time name="orth">    0.04    0.04</time>
   <time name="total">    2.92    3.08</time>
   <energy>
    <i name="e_fr_energy">    -25.69326936 </i>
    <i name="e_wo_entrp">    -25.66505988 </i>
    <i name="e_0_energy">    -25.67916462 </i>
   </energy>
  </scstep>
  <scstep>
   <time name="diag">    0.49    0.51</time>
   <time name="diis">    1.09    1.69</time>
   <time name="orth">    0.03    0.03</time>
   <time name="total">    2.04    2.67</time>
   <energy>
    <i name="alphaZ">     17.60842833 </i>
    <i name="ewald">  20805.34252280 </i>
    <i name="hartreedc"> -33672.67868218 </i>
    <i name="XCdc">   -152.98414489 </i>
    <i name="pawpsdc">  11307.36565983 </i>
    <i name="pawaedc"> -10722.12541468 </i>
    <i name="eentropy">     -0.02820948 </i>
    <i name="bandstr">  -1094.44970406 </i>
    <i name="atom">  13486.25626889 </i>
    <i name="e_fr_energy">    -25.69327543 </i>
    <i name="e_wo_entrp">    -25.66506596 </i>
    <i name="e_0_energy">    -25.67917070 </i>
   </energy>
  </scstep>
  <structure>
   <crystal>
    <varray name="basis" >
     <v>      25.34036346       0.00000000       0.00000000 </v>
     <v>       0.00000000      26.60423055       0.00000000 </v>
     <v>       0.00000000       0.00000000      25.28081173 </v>
    </varray>
    <i name="volume">  17043.33407204 </i>
    <varray name="rec_basis" >
     <v>       0.03946273       0.00000000       0.00000000 </v>
     <v>       0.00000000       0.03758801       0.00000000 </v>
     <v>       0.00000000       0.00000000       0.03955569 </v>
    </varray>
   </crystal>
   <varray name="positions" >
    <v>       0.72314345       0.57259261       0.63856102 </v>
    <v>       0.59381697       0.52044853       0.50977301 </v>
    <v>       0.50997887       0.71905289       0.55773225 </v>
    <v>       0.60711437       0.68403166       0.72043977 </v>
    <v>       0.64843819       0.50007308       0.60692558 </v>
    <v>       0.58372381       0.75017045       0.63841029 </v>
    <v>       0.54874502       0.54794966       0.60651144 </v>
    <v>       0.54513318       0.61896771       0.52010443 </v>
    <v>       0.61659871       0.69779521       0.54806737 </v>
    <v>       0.62203996       0.58445733       0.68045470 </v>
    <v>       0.67465538       0.67113667       0.63729197 </v>
    <v>       0.55052047       0.65017919       0.63044115 </v>
    <v>       0.64593630       0.59670412       0.56304705 </v>
   </varray>
  </structure>
  <varray name="forces" >
   <v>      -0.05032271      -0.01251637       0.04202201 </v>
   <v>      -0.02311202       0.01081867      -0.03498644 </v>
   <v>      -0.00587495      -0.07199762       0.03047368 </v>
   <v>      -0.07484698       0.02772726       0.12747794 </v>
   <v>      -0.00577902       0.03540338       0.01602303 </v>
   <v>       0.05330584       0.01085821      -0.06117984 </v>
   <v>       0.12376024       0.05046400      -0.01877773 </v>
   <v>      -0.03033612       0.03367997       0.11433868 </v>
   <v>       0.03464622      -0.05936705       0.02333468 </v>
   <v>       0.01191340      -0.07694574      -0.11082321 </v>
   <v>      -0.08470168      -0.01235783      -0.11073126 </v>
   <v>       0.08204833       0.02701140      -0.08545698 </v>
   <v>      -0.03070054       0.03722171       0.06828544 </v>
  </varray>
  <varray name="stress" >
   <v>      -0.11853444       0.00298488      -0.00754884 </v>
   <v>       0.00298488      -0.10764412      -0.00034196 </v>
   <v>      -0.00754884      -0.00034195      -0.09045115 </v>
  </varray>
  <energy>
   <i name="e_fr_energy">    -25.69327543 </i>
   <i name="e_wo_entrp">    -25.67917070 </i>
   <i name="e_0_energy">     -0.02820948 </i>
  </energy>
  <time name="totalsc">   24.40   25.72</time>
 </calculation>
 <calculation>
  <scstep>
   <time name="dav">    2.46    2.51</time>
   <time name="total">    3.21    3.27</time>
   <energy>
    <i name="alphaZ">     17.60842833 </i>
    <i name="ewald">  20825.36387171 </i>
    <i name="hartreedc"> -33692.49746288 </i>
    <i name="XCdc">   -152.95410020 </i>
    <i name="pawpsdc">  11307.41714705 </i>
    <i name="pawaedc"> -10722.17841332 </i>
    <i name="eentropy">     -0.02820948 </i>
    <i name="bandstr">  -1094.68618964 </i>
    <i name="atom">  13486.25626889 </i>
    <i name="e_fr_energy">    -25.69865953 </i>
    <i name="e_wo_entrp">    -25.67045005 </i>
    <i name="e_0_energy">    -25.68455479 </i>
   </energy>
  </scstep>
  <scstep>
   <time name="diag">    0.49    0.49</time>
   <time name="diis">    2.01    2.06</time>
   <time name="orth">    0.04    0.04</time>
   <time name="total">    3.19    3.26</time>
   <energy>
    <i name="e_fr_energy">    -25.70310726 </i>
    <i name="e_wo_entrp">    -25.67489778 </i>
    <i name="e_0_energy">    -25.68900252 </i>
   </energy>
  </scstep>
  <scstep>
   <time name="diag">    0.49    0.49</time>
   <time name="diis">    1.74    1.77</time>
   <time name="orth">    0.04    0.04</time>
   <time name="total">    2.96    2.99</time>
   <energy>
    <i name="e_fr_energy">    -25.70308833 </i>
    <i name="e_wo_entrp">    -25.67487885 </i>
    <i name="e_0_energy">    -25.68898359 </i>
   </energy>
  </scstep>
  <scstep>
   <time name="diag">    0.49    0.49</time>
   <time name="diis">    1.90    2.02</time>
   <time name="orth">    0.04    0.04</time>
   <time name="total">    3.08    3.20</time>
   <energy>
    <i name="e_fr_energy">    -25.70293646 </i>
    <i name="e_wo_entrp">    -25.67472698 </i>
    <i name="e_0_energy">    -25.68883172 </i>
   </energy>
  </scstep>
  <scstep>
   <time name="diag">    0.49    0.52</time>
   <time name="diis">    1.70    1.70</time>
   <time name="orth">    0.04    0.04</time>
   <time name="total">    2.88    2.92</time>
   <energy>
    <i name="e_fr_energy">    -25.70295318 </i>
    <i name="e_wo_entrp">    -25.67474370 </i>
    <i name="e_0_energy">    -25.68884844 </i>
   </energy>
  </scstep>
  <scstep>
   <time name="diag">    0.59    0.68</time>
   <time name="diis">    1.15    1.15</time>
   <time name="orth">    0.04    0.04</time>
   <time name="total">    2.56    2.65</time>
   <energy>
    <i name="e_fr_energy">    -25.70294157 </i>
    <i name="e_wo_entrp">    -25.67473209 </i>
    <i name="e_0_energy">    -25.68883683 </i>
   </energy>
  </scstep>
  <scstep>
   <time name="diag">    0.49    0.49</time>
   <time name="diis">    1.06    1.06</time>
   <time name="orth">    0.04    0.04</time>
   <time name="total">    2.02    2.03</time>
   <energy>
    <i name="alphaZ">     17.60842833 </i>
    <i name="ewald">  20825.36387171 </i>
    <i name="hartreedc"> -33692.38016209 </i>
    <i name="XCdc">   -152.95891230 </i>
    <i name="pawpsdc">  11307.94938340 </i>
    <i name="pawaedc"> -10722.75292872 </i>
    <i name="eentropy">     -0.02820948 </i>
    <i name="bandstr">  -1094.76068374 </i>
    <i name="atom">  13486.25626889 </i>
    <i name="e_fr_energy">    -25.70294399 </i>
    <i name="e_wo_entrp">    -25.67473451 </i>
    <i name="e_0_energy">    -25.68883925 </i>
   </energy>
  </scstep>
  <structure>
   <crystal>
    <varray name="basis" >
     <v>      25.34036346       0.00000000       0.00000000 </v>
     <v>       0.00000000      26.60423055       0.00000000 </v>
     <v>       0.00000000       0.00000000      25.28081173 </v>
    </varray>
    <i name="volume">  17043.33407204 </i>
    <varray name="rec_basis" >
     <v>       0.03946273       0.00000000       0.00000000 </v>
     <v>       0.00000000       0.03758801       0.00000000 </v>
     <v>       0.00000000       0.00000000       0.03955569 </v>
    </varray>
   </crystal>
   <varray name="positions" >
    <v>       0.72313123       0.57261684       0.63887681 </v>
    <v>       0.59371164       0.52041011       0.50944617 </v>
    <v>       0.50976372       0.71874063       0.55775801 </v>
    <v>       0.60682194       0.68406158       0.72090313 </v>
    <v>       0.64841004       0.49996279       0.60699175 </v>
    <v>       0.58400640       0.75025119       0.63825765 </v>
    <v>       0.54904868       0.54806251       0.60631041 </v>
    <v>       0.54486992       0.61914375       0.52065497 </v>
    <v>       0.61677504       0.69781864       0.54794786 </v>
    <v>       0.62222073       0.58441414       0.68011574 </v>
    <v>       0.67427173       0.67109658       0.63707493 </v>
    <v>       0.55094341       0.65036795       0.63017579 </v>
    <v>       0.64587022       0.59661238       0.56324683 </v>
   </varray>
  </structure>
  <varray name="forces" >
   <v>      -0.03182004      -0.01697087       0.02837913 </v>
   <v>      -0.01276784       0.03164692      -0.00896596 </v>
   <v>       0.00431231      -0.05447113       0.02039783 </v>
   <v>      -0.06653574       0.01104735       0.06656802 </v>
   <v>       0.00336487       0.03219353       0.00713037 </v>
   <v>       0.04771516       0.00390136      -0.04789589 </v>
   <v>       0.09366444       0.03008875      -0.01186929 </v>
   <v>      -0.02856576       0.02072707       0.06838259 </v>
   <v>       0.01177102      -0.04647142       0.00254743 </v>
   <v>      -0.00292084      -0.06576784      -0.06592008 </v>
   <v>      -0.07073432       0.00978794      -0.05656404 </v>
   <v>       0.08164081       0.02173139      -0.03599533 </v>
   <v>      -0.02912406       0.02255694       0.03380522 </v>
  </varray>
  <varray name="stress" >
   <v>      -0.11333946       0.00217768      -0.00750728 </v>
   <v>       0.00217768      -0.10140797      -0.00364542 </v>
   <v>      -0.00750728      -0.00364542      -0.08294738 </v>
  </varray>
  <energy>
   <i name="e_fr_energy">    -25.70294399 </i>
   <i name="e_wo_entrp">    -25.68883925 </i>
   <i name="e_0_energy">     -0.02820948 </i>
  </energy>
  <time name="totalsc">   24.31   24.90</time>
 </calculation>
 <calculation>
  <scstep>
   <time name="dav">    2.52    2.67</time>
   <time name="total">    3.16    3.32</time>
   <energy>
    <i name="alphaZ">     17.60842833 </i>
    <i name="ewald">  20855.82142666 </i>
    <i name="hartreedc"> -33722.54001464 </i>
    <i name="XCdc">   -152.90956183 </i>
    <i name="pawpsdc">  11307.94933093 </i>
    <i name="pawaedc"> -10722.75270585 </i>
    <i name="eentropy">     -0.02820948 </i>
    <i name="bandstr">  -1095.10497626 </i>
    <i name="atom">  13486.25626889 </i>
    <i name="e_fr_energy">    -25.70001325 </i>
    <i name="e_wo_entrp">    -25.67180377 </i>
    <i name="e_0_energy">    -25.68590851 </i>
   </energy>
  </scstep>
  <scstep>
   <time name="diag">    0.49    0.49</time>
   <time name="diis">    1.72    1.72</time>
   <time name="orth">    0.04    0.04</time>
   <time name="total">    2.91    2.93</time>
   <energy>
    <i name="e_fr_energy">    -25.71045058 </i>
    <i name="e_wo_entrp">    -25.68224110 </i>
    <i name="e_0_energy">    -25.69634584 </i>
   </energy>
  </scstep>
  <scstep>
   <time name="diag">    0.49    0.49</time>
   <time name="diis">    1.92    1.94</time>
   <time name="orth">    0.04    0.04</time>
   <time name="total">    3.16    3.25</time>
   <energy>
    <i name="e_fr_energy">    -25.71038918 </i>
    <i name="e_wo_entrp">    -25.68217970 </i>
    <i name="e_0_energy">    -25.69628444 </i>
   </energy>
  </scstep>
  <scstep>
   <time name="diag">    0.49    0.49</time>
   <time name="diis">    1.69    1.87</time>
   <time name="orth">    0.04    0.04</time>
   <time name="total">    2.89    3.07</time>
   <energy>
    <i name="e_fr_energy">    -25.71001825 </i>
    <i name="e_wo_entrp">    -25.68180877 </i>
    <i name="e_0_energy">    -25.69591351 </i>
   </energy>
  </scstep>
  <scstep>
   <time name="diag">    0.50    0.51</time>
   <time name="diis">    1.71    1.71</time>
   <time name="orth">    0.04    0.04</time>
   <time name="total">    2.94    3.08</time>
   <energy>
    <i name="e_fr_energy">    -25.71002589 </i>
    <i name="e_wo_entrp">    -25.68181641 </i>
    <i name="e_0_energy">    -25.69592115 </i>
   </energy>
  </scstep>
  <scstep>
   <time name="diag">    0.52    0.52</time>
   <time name="diis">    1.66    1.93</time>
   <time name="orth">    0.04    0.04</time>
   <time name="total">    2.88    3.16</time>
   <energy>
    <i name="e_fr_energy">    -25.71000003 </i>
    <i name="e_wo_entrp">    -25.68179055 </i>
    <i name="e_0_energy">    -25.69589529 </i>
   </energy>
  </scstep>
  <scstep>
   <time name="diag">    0.49    0.49</time>
   <time name="diis">    1.06    1.07</time>
   <time name="orth">    0.04    0.04</time>
   <time name="total">    2.03    2.04</time>
   <energy>
    <i name="alphaZ">     17.60842833 </i>
    <i name="ewald">  20855.82142666 </i>
    <i name="hartreedc"> -33722.42591649 </i>
    <i name="XCdc">   -152.91660453 </i>
    <i name="pawpsdc">  11308.99154872 </i>
    <i name="pawaedc"> -10723.86870636 </i>
    <i name="eentropy">     -0.02820948 </i>
    <i name="bandstr">  -1095.14823920 </i>
    <i name="atom">  13486.25626889 </i>
    <i name="e_fr_energy">    -25.71000346 </i>
    <i name="e_wo_entrp">    -25.68179398 </i>
    <i name="e_0_energy">    -25.69589872 </i>
   </energy>
  </scstep>
  <structure>
   <crystal>
    <varray name="basis" >
     <v>      25.34036346       0.00000000       0.00000000 </v>
     <v>       0.00000000      26.60423055       0.00000000 </v>
     <v>       0.00000000       0.00000000      25.28081173 </v>
    </varray>
    <i name="volume">  17043.33407204 </i>
    <varray name="rec_basis" >
     <v>       0.03946273       0.00000000       0.00000000 </v>
     <v>       0.00000000       0.03758801       0.00000000 </v>
     <v>       0.00000000       0.00000000       0.03955569 </v>
    </varray>
   </crystal>
   <varray name="positions" >
    <v>       0.72311258       0.57265381       0.63935864 </v>
    <v>       0.59355094       0.52035150       0.50894747 </v>
    <v>       0.50943544       0.71826421       0.55779732 </v>
    <v>       0.60637575       0.68410725       0.72161012 </v>
    <v>       0.64836709       0.49979451       0.60709270 </v>
    <v>       0.58443757       0.75037438       0.63802475 </v>
    <v>       0.54951199       0.54823470       0.60600368 </v>
    <v>       0.54446823       0.61941233       0.52149497 </v>
    <v>       0.61704408       0.69785440       0.54776551 </v>
    <v>       0.62249654       0.58434823       0.67959856 </v>
    <v>       0.67368637       0.67103543       0.63674378 </v>
    <v>       0.55158872       0.65065597       0.62977090 </v>
    <v>       0.64576940       0.59647239       0.56355165 </v>
   </varray>
  </structure>
  <varray name="forces" >
   <v>      -0.00778606      -0.02954283       0.01161720 </v>
   <v>      -0.00137873       0.05449603       0.02231634 </v>
   <v>       0.01733070      -0.02195866       0.01447316 </v>
   <v>      -0.04264704       0.00129276      -0.02432855 </v>
   <v>       0.01494186       0.02764316      -0.00965739 </v>
   <v>       0.03982210      -0.01059993      -0.01938801 </v>
   <v>       0.04783782       0.00187673      -0.00679836 </v>
   <v>      -0.02118181      -0.00550536       0.00560163 </v>
   <v>      -0.01781415      -0.02386406      -0.03743071 </v>
   <v>      -0.03535097      -0.05182637       0.01263126 </v>
   <v>      -0.04721931       0.03851985       0.02218243 </v>
   <v>       0.07708160       0.01671926       0.04232442 </v>
   <v>      -0.02363600       0.00274943      -0.03354343 </v>
  </varray>
  <varray name="stress" >
   <v>      -0.09526854       0.00393194      -0.00818109 </v>
   <v>       0.00393194      -0.08528317      -0.01125021 </v>
   <v>      -0.00818109      -0.01125021      -0.06778508 </v>
  </varray>
  <energy>
   <i name="e_fr_energy">    -25.71000346 </i>
   <i name="e_wo_entrp">    -25.69589872 </i>
   <i name="e_0_energy">     -0.02820948 </i>
  </energy>
  <time name="totalsc">   24.41   25.57</time>
 </calculation>
 <calculation>
  <scstep>
   <time name="dav">    2.63    2.81</time>
   <time name="total">    3.28    3.45</time>
   <energy>
    <i name="alphaZ">     17.60842833 </i>
    <i name="ewald">  20862.64147746 </i>
    <i name="hartreedc"> -33729.17340487 </i>
    <i name="XCdc">   -152.90502429 </i>
    <i name="pawpsdc">  11308.99645098 </i>
    <i name="pawaedc"> -10723.87350202 </i>
    <i name="eentropy">     -0.02820948 </i>
    <i name="bandstr">  -1095.23225538 </i>
    <i name="atom">  13486.25626889 </i>
    <i name="e_fr_energy">    -25.70977038 </i>
    <i name="e_wo_entrp">    -25.68156090 </i>
    <i name="e_0_energy">    -25.69566564 </i>
   </energy>
  </scstep>
  <scstep>
   <time name="diag">    0.49    0.49</time>
   <time name="diis">    1.73    1.74</time>
   <time name="orth">    0.04    0.04</time>
   <time name="total">    2.96    3.46</time>
   <energy>
    <i name="e_fr_energy">    -25.71028845 </i>
    <i name="e_wo_entrp">    -25.68207897 </i>
    <i name="e_0_energy">    -25.69618371 </i>
   </energy>
  </scstep>
  <scstep>
   <time name="diag">    0.49    0.49</time>
   <time name="diis">    1.75    1.93</time>
   <time name="orth">    0.04    0.04</time>
   <time name="total">    2.94    3.12</time>
   <energy>
    <i name="e_fr_energy">    -25.71028647 </i>
    <i name="e_wo_entrp">    -25.68207699 </i>
    <i name="e_0_energy">    -25.69618173 </i>
   </energy>
  </scstep>
  <scstep>
   <time name="diag">    0.49    0.49</time>
   <time name="diis">    1.45    1.46</time>
   <time name="orth">    0.04    0.04</time>
   <time name="total">    2.64    2.65</time>
   <energy>
    <i name="e_fr_energy">    -25.71027020 </i>
    <i name="e_wo_entrp">    -25.68206073 </i>
    <i name="e_0_energy">    -25.69616547 </i>
   </energy>
  </scstep>
  <scstep>
   <time name="diag">    0.48    0.68</time>
   <time name="diis">    1.03    1.03</time>
   <time name="orth">    0.04    0.04</time>
   <time name="total">    1.99    2.21</time>
   <energy>
    <i name="alphaZ">     17.60842833 </i>
    <i name="ewald">  20862.64147746 </i>
    <i name="hartreedc"> -33729.15289780 </i>
    <i name="XCdc">   -152.90636530 </i>
    <i name="pawpsdc">  11309.27693044 </i>
    <i name="pawaedc"> -10724.17201129 </i>
    <i name="eentropy">     -0.02820948 </i>
    <i name="bandstr">  -1095.23389708 </i>
    <i name="atom">  13486.25626889 </i>
    <i name="e_fr_energy">    -25.71027582 </i>
    <i name="e_wo_entrp">    -25.68206634 </i>
    <i name="e_0_energy">    -25.69617108 </i>
   </energy>
  </scstep>
  <structure>
   <crystal>
    <varray name="basis" >
     <v>      25.34036346       0.00000000       0.00000000 </v>
     <v>       0.00000000      26.60423055       0.00000000 </v>
     <v>       0.00000000       0.00000000      25.28081173 </v>
    </varray>
    <i name="volume">  17043.33407204 </i>
    <varray name="rec_basis" >
     <v>       0.03946273       0.00000000       0.00000000 </v>
     <v>       0.00000000       0.03758801       0.00000000 </v>
     <v>       0.00000000       0.00000000       0.03955569 </v>
    </varray>
   </crystal>
   <varray name="positions" >
    <v>       0.72310839       0.57266211       0.63946676 </v>
    <v>       0.59351488       0.52033835       0.50883557 </v>
    <v>       0.50936178       0.71815730       0.55780614 </v>
    <v>       0.60627563       0.68411750       0.72176876 </v>
    <v>       0.64835745       0.49975675       0.60711536 </v>
    <v>       0.58453432       0.75040203       0.63797249 </v>
    <v>       0.54961596       0.54827334       0.60593486 </v>
    <v>       0.54437809       0.61947260       0.52168346 </v>
    <v>       0.61710445       0.69786242       0.54772459 </v>
    <v>       0.62255842       0.58433345       0.67948250 </v>
    <v>       0.67355503       0.67102170       0.63666947 </v>
    <v>       0.55173352       0.65072059       0.62968005 </v>
    <v>       0.64574678       0.59644097       0.56362005 </v>
   </varray>
  </structure>
  <varray name="forces" >
   <v>       0.00230257      -0.03094691       0.00712826 </v>
   <v>       0.00116042       0.06110080       0.02647058 </v>
   <v>       0.01567747      -0.01535770       0.01537110 </v>
   <v>      -0.04256489       0.00201883      -0.03516843 </v>
   <v>       0.01653460       0.02423123      -0.01256115 </v>
   <v>       0.04320443      -0.01011014      -0.01783110 </v>
   <v>       0.03594353      -0.00510768      -0.00188377 </v>
   <v>      -0.02242325      -0.01162688      -0.00922079 </v>
   <v>      -0.02130499      -0.02009260      -0.04864132 </v>
   <v>      -0.03972855      -0.04992585       0.02666129 </v>
   <v>      -0.04355029       0.04730467       0.04095771 </v>
   <v>       0.07748363       0.01198003       0.05765447 </v>
   <v>      -0.02273470      -0.00346782      -0.04893685 </v>
  </varray>
  <varray name="stress" >
   <v>      -0.09253871       0.00429953      -0.00877113 </v>
   <v>       0.00429953      -0.08184515      -0.01192647 </v>
   <v>      -0.00877113      -0.01192647      -0.06408198 </v>
  </varray>
  <energy>
   <i name="e_fr_energy">    -25.71027582 </i>
   <i name="e_wo_entrp">    -25.69617108 </i>
   <i name="e_0_energy">     -0.02820948 </i>
  </energy>
  <time name="totalsc">   18.23   19.46</time>
 </calculation>
 <calculation>
  <scstep>
   <time name="dav">    2.29    2.29</time>
   <time name="total">    2.96    3.09</time>
   <energy>
    <i name="alphaZ">     17.60842833 </i>
    <i name="ewald">  20882.22121044 </i>
    <i name="hartreedc"> -33748.59107916 </i>
    <i name="XCdc">   -152.87245962 </i>
    <i name="pawpsdc">  11309.26656432 </i>
    <i name="pawaedc"> -10724.16130438 </i>
    <i name="eentropy">     -0.02820948 </i>
    <i name="bandstr">  -1095.41104921 </i>
    <i name="atom">  13486.25626889 </i>
    <i name="e_fr_energy">    -25.71162986 </i>
    <i name="e_wo_entrp">    -25.68342038 </i>
    <i name="e_0_energy">    -25.69752512 </i>
   </energy>
  </scstep>
  <scstep>
   <time name="diag">    0.49    0.51</time>
   <time name="diis">    1.71    1.86</time>
   <time name="orth">    0.04    0.04</time>
   <time name="total">    2.91    3.10</time>
   <energy>
    <i name="e_fr_energy">    -25.71397303 </i>
    <i name="e_wo_entrp">    -25.68576355 </i>
    <i name="e_0_energy">    -25.69986829 </i>
   </energy>
  </scstep>
  <scstep>
   <time name="diag">    0.49    0.49</time>
   <time name="diis">    1.73    1.92</time>
   <time name="orth">    0.04    0.04</time>
   <time name="total">    2.91    3.11</time>
   <energy>
    <i name="e_fr_energy">    -25.71395960 </i>
    <i name="e_wo_entrp">    -25.68575012 </i>
    <i name="e_0_energy">    -25.69985486 </i>
   </energy>
  </scstep>
  <scstep>
   <time name="diag">    0.55    0.70</time>
   <time name="diis">    1.70    1.70</time>
   <time name="orth">    0.04    0.04</time>
   <time name="total">    2.94    3.10</time>
   <energy>
    <i name="e_fr_energy">    -25.71387434 </i>
    <i name="e_wo_entrp">    -25.68566486 </i>
    <i name="e_0_energy">    -25.69976960 </i>
   </energy>
  </scstep>
  <scstep>
   <time name="diag">    0.48    0.64</time>
   <time name="diis">    1.79    1.82</time>
   <time name="orth">    0.10    0.10</time>
   <time name="total">    3.02    3.22</time>
   <energy>
    <i name="e_fr_energy">    -25.71388424 </i>
    <i name="e_wo_entrp">    -25.68567476 </i>
    <i name="e_0_energy">    -25.69977950 </i>
   </energy>
  </scstep>
  <scstep>
   <time name="diag">    0.49    0.49</time>
   <time name="diis">    1.06    1.06</time>
   <time name="orth">    0.04    0.04</time>
   <time name="total">    2.03    2.03</time>
   <energy>
    <i name="alphaZ">     17.60842833 </i>
    <i name="ewald">  20882.22121044 </i>
    <i name="hartreedc"> -33748.41246201 </i>
    <i name="XCdc">   -152.87916125 </i>
    <i name="pawpsdc">  11309.96607875 </i>
    <i name="pawaedc"> -10724.92087161 </i>
    <i name="eentropy">     -0.02820948 </i>
    <i name="bandstr">  -1095.52516010 </i>
    <i name="atom">  13486.25626889 </i>
    <i name="e_fr_energy">    -25.71387803 </i>
    <i name="e_wo_entrp">    -25.68566855 </i>
    <i name="e_0_energy">    -25.69977329 </i>
   </energy>
  </scstep>
  <structure>
   <crystal>
    <varray name="basis" >
     <v>      25.34036346       0.00000000       0.00000000 </v>
     <v>       0.00000000      26.60423055       0.00000000 </v>
     <v>       0.00000000       0.00000000      25.28081173 </v>
    </varray>
    <i name="volume">  17043.33407204 </i>
    <varray name="rec_basis" >
     <v>       0.03946273       0.00000000       0.00000000 </v>
     <v>       0.00000000       0.03758801       0.00000000 </v>
     <v>       0.00000000       0.00000000       0.03955569 </v>
    </varray>
   </crystal>
   <varray name="positions" >
    <v>       0.72311453       0.57253781       0.63960817 </v>
    <v>       0.59348366       0.52058703       0.50884193 </v>
    <v>       0.50935792       0.71798343       0.55788440 </v>
    <v>       0.60598287       0.68413651       0.72177038 </v>
    <v>       0.64842214       0.49982249       0.60708157 </v>
    <v>       0.58482655       0.75038661       0.63783923 </v>
    <v>       0.54988280       0.54829048       0.60585681 </v>
    <v>       0.54418608       0.61948365       0.52183231 </v>
    <v>       0.61706955       0.69778438       0.54746378 </v>
    <v>       0.62244213       0.58410445       0.67948554 </v>
    <v>       0.67322627       0.67121066       0.63677919 </v>
    <v>       0.55222861       0.65083726       0.62984838 </v>
    <v>       0.64562158       0.59639436       0.56346836 </v>
   </varray>
  </structure>
  <varray name="forces" >
   <v>      -0.01507292      -0.01000833      -0.00326333 </v>
   <v>       0.00076310       0.03565979       0.00429696 </v>
   <v>       0.00772931      -0.00688762       0.01849731 </v>
   <v>      -0.03311985      -0.00059784      -0.01677505 </v>
   <v>       0.02866931       0.01097687      -0.01283800 </v>
   <v>       0.04326961       0.01011085      -0.01901529 </v>
   <v>      -0.00154527      -0.00818782       0.01188398 </v>
   <v>      -0.02096728      -0.01326015      -0.02222875 </v>
   <v>      -0.01674618      -0.01570469      -0.04297484 </v>
   <v>      -0.01786615      -0.03146306       0.04442961 </v>
   <v>      -0.02412319       0.01014160       0.01710589 </v>
   <v>       0.03803376      -0.00493573       0.03600908 </v>
   <v>       0.01097574       0.02415613      -0.01512756 </v>
  </varray>
  <varray name="stress" >
   <v>      -0.07914344       0.00719561      -0.00712411 </v>
   <v>       0.00719561      -0.07183483      -0.00897527 </v>
   <v>      -0.00712411      -0.00897527      -0.05283736 </v>
  </varray>
  <energy>
   <i name="e_fr_energy">    -25.71387803 </i>
   <i name="e_wo_entrp">    -25.69977329 </i>
   <i name="e_0_energy">     -0.02820948 </i>
  </energy>
  <time name="totalsc">   21.00   22.22</time>
 </calculation>
 <calculation>
  <scstep>
   <time name="dav">    2.36    2.46</time>
   <time name="total">    3.01    3.11</time>
   <energy>
    <i name="alphaZ">     17.60842833 </i>
    <i name="ewald">  20903.52599328 </i>
    <i name="hartreedc"> -33769.55138490 </i>
    <i name="XCdc">   -152.84118096 </i>
    <i name="pawpsdc">  11309.98234208 </i>
    <i name="pawaedc"> -10724.93788981 </i>
    <i name="eentropy">     -0.02820948 </i>
    <i name="bandstr">  -1095.72722004 </i>
    <i name="atom">  13486.25626889 </i>
    <i name="e_fr_energy">    -25.71285261 </i>
    <i name="e_wo_entrp">    -25.68464313 </i>
[...]
    <field>eigene</field>
    <field>occ</field>
    <set>
     <set comment="spin 1">
      <set comment="kpoint 1">
       <r>   -9.4699    1.0000 </r>
       <r>   -9.3392    1.0000 </r>
       <r>   -9.2265    1.0000 </r>
       <r>   -9.1943    1.0000 </r>
       <r>   -9.1406    1.0000 </r>
       <r>   -9.1380    1.0000 </r>
       <r>   -9.1309    1.0000 </r>
       <r>   -9.0873    1.0000 </r>
       <r>   -9.0651    1.0000 </r>
       <r>   -8.8370    1.0000 </r>
       <r>   -8.8309    1.0000 </r>
       <r>   -8.7002    1.0000 </r>
       <r>   -8.6902    1.0000 </r>
       <r>   -8.6655    1.0000 </r>
       <r>   -8.6625    1.0000 </r>
       <r>   -8.5303    1.0000 </r>
       <r>   -8.4525    1.0000 </r>
       <r>   -8.4471    1.0000 </r>
       <r>   -8.4257    1.0000 </r>
       <r>   -8.3505    1.0000 </r>
       <r>   -8.2963    1.0000 </r>
       <r>   -8.2894    1.0000 </r>
       <r>   -8.1924    1.0000 </r>
       <r>   -8.1343    1.0000 </r>
       <r>   -8.1307    1.0000 </r>
       <r>   -8.0471    1.0000 </r>
       <r>   -8.0416    1.0000 </r>
       <r>   -7.9879    1.0000 </r>
       <r>   -7.9450    1.0000 </r>
       <r>   -7.8841    1.0000 </r>
       <r>   -7.7196    1.0000 </r>
       <r>   -7.6839    1.0000 </r>
       <r>   -7.6290    1.0000 </r>
       <r>   -7.6094    1.0000 </r>
       <r>   -7.5967    1.0000 </r>
       <r>   -7.5611    1.0000 </r>
       <r>   -7.5557    1.0000 </r>
       <r>   -7.5079    1.0000 </r>
       <r>   -7.4778    1.0000 </r>
       <r>   -7.4553    1.0000 </r>
       <r>   -7.4172    1.0000 </r>
       <r>   -7.3783    1.0000 </r>
       <r>   -7.3738    1.0000 </r>
       <r>   -7.3580    1.0000 </r>
       <r>   -7.3545    1.0000 </r>
       <r>   -7.3302    1.0000 </r>
       <r>   -7.2941    1.0000 </r>
       <r>   -7.2921    1.0000 </r>
       <r>   -7.2850    1.0000 </r>
       <r>   -7.2402    1.0000 </r>
       <r>   -7.1966    1.0000 </r>
       <r>   -7.1772    1.0000 </r>
       <r>   -7.1508    1.0000 </r>
       <r>   -7.1343    1.0000 </r>
       <r>   -7.0717    1.0000 </r>
       <r>   -7.0514    1.0000 </r>
       <r>   -7.0150    1.0000 </r>
       <r>   -7.0051    1.0000 </r>
       <r>   -6.9676    1.0000 </r>
       <r>   -6.9611    1.0000 </r>
       <r>   -6.9056    1.0000 </r>
       <r>   -6.8477    1.0000 </r>
       <r>   -6.8192    1.0000 </r>
       <r>   -6.7890    1.0000 </r>
       <r>   -6.7842    1.0000 </r>
       <r>   -6.7665    1.0000 </r>
       <r>   -6.5087    1.0000 </r>
       <r>   -6.0670    1.0000 </r>
       <r>   -5.1375    1.0000 </r>
       <r>   -4.5986    1.0000 </r>
       <r>   -4.5543    1.0000 </r>
       <r>   -3.8218    0.5000 </r>
       <r>   -3.2004    0.0000 </r>
       <r>   -3.1969    0.0000 </r>
       <r>   -2.6137    0.0000 </r>
       <r>   -2.4435    0.0000 </r>
       <r>   -2.3074    0.0000 </r>
       <r>   -2.2673    0.0000 </r>
       <r>   -1.6203    0.0000 </r>
       <r>   -1.4554    0.0000 </r>
       <r>   -1.2056    0.0000 </r>
       <r>   -1.0839    0.0000 </r>
       <r>   -0.8641    0.0000 </r>
       <r>   -0.7377    0.0000 </r>
       <r>   -0.7044    0.0000 </r>
       <r>   -0.5569    0.0000 </r>
      </set>
     </set>
    </set>
   </array>
  </eigenvalues>
  <separator name="orbital magnetization" >
   <v name="MAGDIPOLOUT">      0.00000000      0.00000000      0.00000000</v>
  </separator>
  <dos>
   <i name="efermi">     -3.82175989 </i>
   <total>
    <array>
     <dimension dim="1">gridpoints</dimension>
     <dimension dim="2">spin</dimension>
     <field>energy</field>
     <field>total</field>
     <field>integrated</field>
     <set>
      <set comment="spin 1">
       <r>    -9.9699     0.0000     0.0000 </r>
       <r>    -9.9369     0.0000     0.0000 </r>
       <r>    -9.9038     0.0000     0.0000 </r>
       <r>    -9.8708     0.0000     0.0000 </r>
       <r>    -9.8377     0.0000     0.0000 </r>
       <r>    -9.8047     0.0000     0.0000 </r>
       <r>    -9.7716     0.0000     0.0000 </r>
       <r>    -9.7386     0.0000     0.0000 </r>
       <r>    -9.7056     0.0000     0.0000 </r>
       <r>    -9.6725     0.0000     0.0000 </r>
       <r>    -9.6395     0.0000     0.0000 </r>
       <r>    -9.6064     0.0034     0.0001 </r>
       <r>    -9.5734     0.1002     0.0034 </r>
       <r>    -9.5403     1.2990     0.0463 </r>
       <r>    -9.5073     7.3810     0.2902 </r>
       <r>    -9.4743    18.5214     0.9023 </r>
       <r>    -9.4412    20.7199     1.5869 </r>
       <r>    -9.4082    11.6057     1.9704 </r>
       <r>    -9.3751    10.0533     2.3026 </r>
       <r>    -9.3421    19.1815     2.9364 </r>
       <r>    -9.3090    20.9157     3.6276 </r>
       <r>    -9.2760    14.5698     4.1090 </r>
       <r>    -9.2430    21.2843     4.8123 </r>
       <r>    -9.2099    40.0915     6.1371 </r>
       <r>    -9.1769    56.3563     7.9993 </r>
       <r>    -9.1438    74.8367    10.4721 </r>
       <r>    -9.1108    84.7357    13.2721 </r>
       <r>    -9.0777    71.5237    15.6355 </r>
       <r>    -9.0447    46.6748    17.1778 </r>
       <r>    -9.0116    19.9066    17.8356 </r>
       <r>    -8.9786     4.4775    17.9835 </r>
       <r>    -8.9456     0.5758    18.0025 </r>
       <r>    -8.9125     1.5475    18.0537 </r>
       <r>    -8.8795    10.4603    18.3993 </r>
       <r>    -8.8464    31.8203    19.4508 </r>
       <r>    -8.8134    43.1914    20.8780 </r>
       <r>    -8.7803    27.1386    21.7747 </r>
       <r>    -8.7473    15.8114    22.2972 </r>
       <r>    -8.7143    36.3140    23.4971 </r>
       <r>    -8.6812    71.6050    25.8632 </r>
       <r>    -8.6482    74.2395    28.3163 </r>
       <r>    -8.6151    39.8226    29.6322 </r>
       <r>    -8.5821    14.1227    30.0989 </r>
       <r>    -8.5490    15.2795    30.6038 </r>
       <r>    -8.5160    25.5442    31.4478 </r>
       <r>    -8.4830    35.5898    32.6238 </r>
       <r>    -8.4499    55.8569    34.4695 </r>
       <r>    -8.4169    62.9845    36.5508 </r>
       <r>    -8.3838    44.0216    38.0054 </r>
       <r>    -8.3508    34.8340    39.1564 </r>
       <r>    -8.3177    44.0623    40.6124 </r>
       <r>    -8.2847    51.3961    42.3107 </r>
       <r>    -8.2516    38.9634    43.5982 </r>
       <r>    -8.2186    24.7060    44.4146 </r>
       <r>    -8.1856    30.2740    45.4149 </r>
       <r>    -8.1525    44.5417    46.8867 </r>
       <r>    -8.1195    51.9019    48.6018 </r>
       <r>    -8.0864    44.9256    50.0863 </r>
       <r>    -8.0534    46.1842    51.6123 </r>
       <r>    -8.0203    53.8328    53.3912 </r>
       <r>    -7.9873    49.6610    55.0321 </r>
       <r>    -7.9543    43.7149    56.4766 </r>
       <r>    -7.9212    37.9878    57.7319 </r>
       <r>    -7.8882    32.1626    58.7946 </r>
       <r>    -7.8551    23.6385    59.5757 </r>
       <r>    -7.8221    10.5307    59.9237 </r>
       <r>    -7.7890     3.6783    60.0453 </r>
       <r>    -7.7560     9.0619    60.3447 </r>
       <r>    -7.7230    25.9739    61.2030 </r>
       <r>    -7.6899    41.6686    62.5798 </r>
       <r>    -7.6569    48.6992    64.1890 </r>
       <r>    -7.6238    63.2365    66.2786 </r>
       <r>    -7.5908    82.0853    68.9910 </r>
       <r>    -7.5577    83.7964    71.7599 </r>
       <r>    -7.5247    71.6742    74.1282 </r>
       <r>    -7.4916    64.7492    76.2678 </r>
       <r>    -7.4586    66.1330    78.4530 </r>
       <r>    -7.4256    67.5263    80.6844 </r>
       <r>    -7.3925    82.4456    83.4086 </r>
       <r>    -7.3595   109.6682    87.0325 </r>
       <r>    -7.3264   117.1532    90.9036 </r>
       <r>    -7.2934   107.4010    94.4525 </r>
       <r>    -7.2603    89.3191    97.4039 </r>
       <r>    -7.2273    67.4507    99.6327 </r>
       <r>    -7.1943    64.9053   101.7774 </r>
       <r>    -7.1612    74.3517   104.2343 </r>
       <r>    -7.1282    69.7140   106.5378 </r>
       <r>    -7.0951    54.8975   108.3519 </r>
       <r>    -7.0621    56.7137   110.2259 </r>
       <r>    -7.0290    70.9488   112.5703 </r>
       <r>    -6.9960    80.2099   115.2207 </r>
       <r>    -6.9630    77.5244   117.7823 </r>
       <r>    -6.9299    61.1023   119.8014 </r>
       <r>    -6.8969    44.6056   121.2753 </r>
       <r>    -6.8638    42.3496   122.6747 </r>
       <r>    -6.8308    57.4197   124.5720 </r>
       <r>    -6.7977    78.9620   127.1812 </r>
       <r>    -6.7647    80.0580   129.8266 </r>
       <r>    -6.7316    48.2167   131.4198 </r>
       <r>    -6.6986    15.0927   131.9186 </r>
       <r>    -6.6656     2.2961   131.9944 </r>
       <r>    -6.6325     0.1772   132.0003 </r>
       <r>    -6.5995     0.3005   132.0102 </r>
       <r>    -6.5664     2.7862   132.1023 </r>
       <r>    -6.5334    11.5630   132.4844 </r>
       <r>    -6.5003    21.2346   133.1860 </r>
       <r>    -6.4673    17.3087   133.7580 </r>
       <r>    -6.4343     6.2555   133.9647 </r>
       <r>    -6.4012     0.9975   133.9976 </r>
       <r>    -6.3682     0.0697   133.9999 </r>
       <r>    -6.3351     0.0021   134.0000 </r>
       <r>    -6.3021     0.0000   134.0000 </r>
       <r>    -6.2690     0.0000   134.0000 </r>
       <r>    -6.2360     0.0001   134.0000 </r>
       <r>    -6.2030     0.0036   134.0001 </r>
       <r>    -6.1699     0.1052   134.0036 </r>
       <r>    -6.1369     1.3448   134.0480 </r>
       <r>    -6.1038     7.5402   134.2972 </r>
       <r>    -6.0708    18.6695   134.9141 </r>
       <r>    -6.0377    20.5039   135.5916 </r>
       <r>    -6.0047     9.9932   135.9218 </r>
       <r>    -5.9716     2.1536   135.9930 </r>
       <r>    -5.9386     0.2039   135.9997 </r>
       <r>    -5.9056     0.0084   136.0000 </r>
       <r>    -5.8725     0.0001   136.0000 </r>
       <r>    -5.8395     0.0000   136.0000 </r>
       <r>    -5.8064     0.0000   136.0000 </r>
       <r>    -5.7734     0.0000   136.0000 </r>
       <r>    -5.7403     0.0000   136.0000 </r>
       <r>    -5.7073     0.0000   136.0000 </r>
       <r>    -5.6743     0.0000   136.0000 </r>
       <r>    -5.6412     0.0000   136.0000 </r>
       <r>    -5.6082     0.0000   136.0000 </r>
       <r>    -5.5751     0.0000   136.0000 </r>
       <r>    -5.5421     0.0000   136.0000 </r>
       <r>    -5.5090     0.0000   136.0000 </r>
       <r>    -5.4760     0.0000   136.0000 </r>
       <r>    -5.4430     0.0000   136.0000 </r>
       <r>    -5.4099     0.0000   136.0000 </r>
       <r>    -5.3769     0.0000   136.0000 </r>
       <r>    -5.3438     0.0000   136.0000 </r>
       <r>    -5.3108     0.0000   136.0000 </r>
       <r>    -5.2777     0.0022   136.0001 </r>
       <r>    -5.2447     0.0713   136.0024 </r>
       <r>    -5.2116     1.0144   136.0359 </r>
       <r>    -5.1786     6.3227   136.2449 </r>
       <r>    -5.1456    17.3878   136.8194 </r>
       <r>    -5.1125    21.2021   137.5200 </r>
       <r>    -5.0795    11.4750   137.8992 </r>
       <r>    -5.0464     2.7480   137.9900 </r>
       <r>    -5.0134     0.2893   137.9996 </r>
       <r>    -4.9803     0.0133   138.0000 </r>
       <r>    -4.9473     0.0003   138.0000 </r>
       <r>    -4.9143     0.0000   138.0000 </r>
       <r>    -4.8812     0.0000   138.0000 </r>
       <r>    -4.8482     0.0000   138.0000 </r>
       <r>    -4.8151     0.0000   138.0000 </r>
       <r>    -4.7821     0.0000   138.0000 </r>
       <r>    -4.7490     0.0006   138.0000 </r>
       <r>    -4.7160     0.0268   138.0009 </r>
       <r>    -4.6830     0.4981   138.0174 </r>
       <r>    -4.6499     4.1316   138.1539 </r>
       <r>    -4.6169    16.0167   138.6831 </r>
       <r>    -4.5838    31.6533   139.7291 </r>
       <r>    -4.5508    35.5636   140.9042 </r>
       <r>    -4.5177    23.3947   141.6773 </r>
       <r>    -4.4847     8.2497   141.9499 </r>
       <r>    -4.4516     1.4050   141.9963 </r>
       <r>    -4.4186     0.1086   141.9999 </r>
       <r>    -4.3856     0.0037   142.0000 </r>
       <r>    -4.3525     0.0001   142.0000 </r>
       <r>    -4.3195     0.0000   142.0000 </r>
       <r>    -4.2864     0.0000   142.0000 </r>
       <r>    -4.2534     0.0000   142.0000 </r>
       <r>    -4.2203     0.0000   142.0000 </r>
       <r>    -4.1873     0.0000   142.0000 </r>
       <r>    -4.1543     0.0000   142.0000 </r>
       <r>    -4.1212     0.0000   142.0000 </r>
       <r>    -4.0882     0.0000   142.0000 </r>
       <r>    -4.0551     0.0000   142.0000 </r>
       <r>    -4.0221     0.0000   142.0000 </r>
       <r>    -3.9890     0.0001   142.0000 </r>
       <r>    -3.9560     0.0044   142.0001 </r>
       <r>    -3.9230     0.1229   142.0042 </r>
       <r>    -3.8899     1.5042   142.0539 </r>
       <r>    -3.8569     8.0750   142.3207 </r>
       <r>    -3.8238    19.1489   142.9535 </r>
       <r>    -3.7908    20.1443   143.6191 </r>
       <r>    -3.7577     9.4034   143.9298 </r>
       <r>    -3.7247     1.9404   143.9940 </r>
       <r>    -3.6916     0.1758   143.9998 </r>
       <r>    -3.6586     0.0069   144.0000 </r>
       <r>    -3.6256     0.0001   144.0000 </r>
       <r>    -3.5925     0.0000   144.0000 </r>
       <r>    -3.5595     0.0000   144.0000 </r>
       <r>    -3.5264     0.0000   144.0000 </r>
       <r>    -3.4934     0.0000   144.0000 </r>
       <r>    -3.4603     0.0000   144.0000 </r>
       <r>    -3.4273     0.0000   144.0000 </r>
       <r>    -3.3943     0.0000   144.0000 </r>
       <r>    -3.3612     0.0003   144.0000 </r>
       <r>    -3.3282     0.0150   144.0005 </r>
       <r>    -3.2951     0.3721   144.0128 </r>
       <r>    -3.2621     4.0284   144.1459 </r>
       <r>    -3.2290    19.1888   144.7800 </r>
       <r>    -3.1960    40.4839   146.1177 </r>
       <r>    -3.1630    37.9714   147.3724 </r>
       <r>    -3.1299    15.8281   147.8954 </r>
       <r>    -3.0969     2.9196   147.9919 </r>
       <r>    -3.0638     0.2366   147.9997 </r>
       <r>    -3.0308     0.0084   148.0000 </r>
       <r>    -2.9977     0.0001   148.0000 </r>
       <r>    -2.9647     0.0000   148.0000 </r>
       <r>    -2.9316     0.0000   148.0000 </r>
       <r>    -2.8986     0.0000   148.0000 </r>
       <r>    -2.8656     0.0000   148.0000 </r>
       <r>    -2.8325     0.0000   148.0000 </r>
       <r>    -2.7995     0.0000   148.0000 </r>
       <r>    -2.7664     0.0005   148.0000 </r>
       <r>    -2.7334     0.0210   148.0007 </r>
       <r>    -2.7003     0.4097   148.0142 </r>
       <r>    -2.6673     3.4856   148.1294 </r>
       <r>    -2.6343    13.0525   148.5607 </r>
       <r>    -2.6012    21.6405   149.2758 </r>
       <r>    -2.5682    15.9391   149.8025 </r>
       <r>    -2.5351     5.4710   149.9833 </r>
       <r>    -2.5021     3.4074   150.0959 </r>
       <r>    -2.4690    11.3170   150.4698 </r>
       <r>    -2.4360    21.1318   151.1681 </r>
       <r>    -2.4030    17.7747   151.7554 </r>
       <r>    -2.3699     8.7142   152.0434 </r>
       <r>    -2.3369    12.3461   152.4513 </r>
       <r>    -2.3038    28.1850   153.3826 </r>
       <r>    -2.2708    37.5107   154.6221 </r>
       <r>    -2.2377    28.0417   155.5487 </r>
       <r>    -2.2047    11.2328   155.9199 </r>
       <r>    -2.1716     2.2145   155.9931 </r>
       <r>    -2.1386     0.2013   155.9997 </r>
       <r>    -2.1056     0.0081   156.0000 </r>
       <r>    -2.0725     0.0001   156.0000 </r>
       <r>    -2.0395     0.0000   156.0000 </r>
       <r>    -2.0064     0.0000   156.0000 </r>
       <r>    -1.9734     0.0000   156.0000 </r>
       <r>    -1.9403     0.0000   156.0000 </r>
       <r>    -1.9073     0.0000   156.0000 </r>
       <r>    -1.8743     0.0000   156.0000 </r>
       <r>    -1.8412     0.0000   156.0000 </r>
       <r>    -1.8082     0.0000   156.0000 </r>
       <r>    -1.7751     0.0004   156.0000 </r>
       <r>    -1.7421     0.0169   156.0006 </r>
       <r>    -1.7090     0.3469   156.0120 </r>
       <r>    -1.6760     3.1126   156.1149 </r>
       <r>    -1.6430    12.2864   156.5209 </r>
       <r>    -1.6099    21.4662   157.2302 </r>
       <r>    -1.5769    16.6648   157.7809 </r>
       <r>    -1.5438     6.0810   157.9818 </r>
       <r>    -1.5108     4.0475   158.1155 </r>
       <r>    -1.4777    12.4863   158.5281 </r>
       <r>    -1.4447    21.5054   159.2387 </r>
       <r>    -1.4116    16.5149   159.7844 </r>
       <r>    -1.3786     5.6223   159.9702 </r>
       <r>    -1.3456     0.8463   159.9982 </r>
       <r>    -1.3125     0.1287   160.0024 </r>
       <r>    -1.2795     1.0360   160.0367 </r>
       <r>    -1.2464     6.4015   160.2482 </r>
       <r>    -1.2134    17.4867   160.8260 </r>
       <r>    -1.1803    21.3487   161.5315 </r>
       <r>    -1.1473    13.3897   161.9739 </r>
       <r>    -1.1143    12.3231   162.3811 </r>
       <r>    -1.0812    20.5640   163.0606 </r>
       <r>    -1.0482    18.9889   163.6881 </r>
       <r>    -1.0151     7.8768   163.9483 </r>
       <r>    -0.9821     1.4687   163.9969 </r>
       <r>    -0.9490     0.5820   164.0161 </r>
       <r>    -0.9160     3.8061   164.1419 </r>
       <r>    -0.8830    13.6591   164.5932 </r>
       <r>    -0.8499    21.7727   165.3127 </r>
       <r>    -0.8169    16.1030   165.8448 </r>
       <r>    -0.7838    10.5601   166.1937 </r>
       <r>    -0.7508    21.3853   166.9004 </r>
       <r>    -0.7177    37.3591   168.1348 </r>
       <r>    -0.6847    34.9634   169.2901 </r>
       <r>    -0.6516    17.1559   169.8570 </r>
       <r>    -0.6186     6.2886   170.0648 </r>
       <r>    -0.5856    10.6342   170.4162 </r>
       <r>    -0.5525    20.6288   171.0979 </r>
       <r>    -0.5195    18.5180   171.7098 </r>
       <r>    -0.4864     7.3810   171.9537 </r>
       <r>    -0.4534     1.2990   171.9966 </r>
       <r>    -0.4203     0.1002   171.9999 </r>
       <r>    -0.3873     0.0034   172.0000 </r>
       <r>    -0.3543     0.0000   172.0000 </r>
       <r>    -0.3212     0.0000   172.0000 </r>
       <r>    -0.2882     0.0000   172.0000 </r>
       <r>    -0.2551     0.0000   172.0000 </r>
       <r>    -0.2221     0.0000   172.0000 </r>
       <r>    -0.1890     0.0000   172.0000 </r>
       <r>    -0.1560     0.0000   172.0000 </r>
       <r>    -0.1230     0.0000   172.0000 </r>
       <r>    -0.0899     0.0000   172.0000 </r>
       <r>    -0.0569     0.0000   172.0000 </r>
      </set>
     </set>
    </array>
   </total>
  </dos>
 </calculation>
 <structure name="finalpos" >
  <crystal>
   <varray name="basis" >
    <v>      25.34036346       0.00000000       0.00000000 </v>
    <v>       0.00000000      26.60423055       0.00000000 </v>
    <v>       0.00000000       0.00000000      25.28081173 </v>
   </varray>
   <i name="volume">  17043.33407204 </i>
   <varray name="rec_basis" >
    <v>       0.03946273       0.00000000       0.00000000 </v>
    <v>       0.00000000       0.03758801       0.00000000 </v>
    <v>       0.00000000       0.00000000       0.03955569 </v>
   </varray>
  </crystal>
  <varray name="positions" >
   <v>       0.72253446       0.57310046       0.63955245 </v>
   <v>       0.59363608       0.52161471       0.50835871 </v>
   <v>       0.50939353       0.71755893       0.55913495 </v>
   <v>       0.60451861       0.68459924       0.72227301 </v>
   <v>       0.64933968       0.49993780       0.60616734 </v>
   <v>       0.58694610       0.75040909       0.63664924 </v>
   <v>       0.55066086       0.54770437       0.60633339 </v>
   <v>       0.54313700       0.61907278       0.52214475 </v>
   <v>       0.61670284       0.69731311       0.54567403 </v>
   <v>       0.62226158       0.58339736       0.68094019 </v>
   <v>       0.67145947       0.67154948       0.63710192 </v>
   <v>       0.55373873       0.65048264       0.63003213 </v>
   <v>       0.64551576       0.59681914       0.56339794 </v>
  </varray>
 </structure>
</modeling>
