 running on   32 total cores
 distrk:  each k-point on   32 cores,    1 groups
 distr:  one band on   16 cores,    2 groups
 using from now: INCAR     
 vasp.5.4.4.18Apr17-6-g9f103f2a35 (build Jun 19 2019 11:58:18) complex          
  
 POSCAR found type information on POSCAR  Ag
 POSCAR found :  1 types and      13 ions
 scaLAPACK will be used

 ----------------------------------------------------------------------------- 
|                                                                             |
|           W    W    AA    RRRRR   N    N  II  N    N   GGGG   !!!           |
|           W    W   A  A   R    R  NN   N  II  NN   N  G    G  !!!           |
|           W    W  A    A  R    R  N N  N  II  N N  N  G       !!!           |
|           W WW W  AAAAAA  RRRRR   N  N N  II  N  N N  G  GGG   !            |
|           WW  WW  A    A  R   R   N   NN  II  N   NN  G    G                |
|           W    W  A    A  R    R  N    N  II  N    N   GGGG   !!!           |
|                                                                             |
|      For optimal performance we recommend to set                            |
|        NCORE= 4 - approx SQRT( number of cores)                             |
|      NCORE specifies how many cores store one orbital (NPAR=cpu/NCORE).     |
|      This setting can  greatly improve the performance of VASP for DFT.     |
|      The default,   NCORE=1            might be grossly inefficient         |
|      on modern multi-core architectures or massively parallel machines.     |
|      Do your own testing !!!!                                               |
|      Unfortunately you need to use the default for GW and RPA calculations. |
|      (for HF NCORE is supported but not extensively tested yet)             |
|                                                                             |
 ----------------------------------------------------------------------------- 

 LDA part: xc-table for Pade appr. of Perdew
 POSCAR, INCAR and KPOINTS ok, starting setup
 FFT: planning ...
 WAVECAR not read
 entering main loop
       N       E                     dE             d eps       ncg     rms          rms(c)
DAV:   1     0.117773698046E+04    0.11777E+04   -0.19723E+04   188   0.705E+02
DAV:   2     0.689088505833E+03   -0.48865E+03   -0.45458E+03   344   0.726E+01
DAV:   3     0.169429815139E+03   -0.51966E+03   -0.48257E+03   280   0.820E+01
DAV:   4    -0.726775187500E+01   -0.17670E+03   -0.16054E+03   232   0.775E+01
DAV:   5    -0.271651997010E+02   -0.19897E+02   -0.19599E+02   178   0.315E+01    0.622E+00
RMM:   6    -0.258247723602E+02    0.13404E+01   -0.80276E+00   172   0.101E+01    0.195E+00
RMM:   7    -0.256699694942E+02    0.15480E+00   -0.10238E+00   172   0.304E+00    0.770E-01
RMM:   8    -0.256463964232E+02    0.23573E-01   -0.85481E-02   173   0.911E-01    0.295E-01
RMM:   9    -0.256431571156E+02    0.32393E-02   -0.12168E-02   176   0.393E-01    0.109E-01
RMM:  10    -0.256432401394E+02   -0.83024E-04   -0.17141E-03   172   0.102E-01    0.610E-02
RMM:  11    -0.256451298997E+02   -0.18898E-02   -0.23152E-03   172   0.108E-01    0.516E-02
RMM:  12    -0.256472760508E+02   -0.21462E-02   -0.17142E-03   172   0.180E-01    0.427E-02
RMM:  13    -0.256489834982E+02   -0.17074E-02   -0.44531E-04   172   0.797E-02    0.119E-02
RMM:  14    -0.256505461939E+02   -0.15627E-02   -0.15144E-04   172   0.355E-02    0.113E-02
RMM:  15    -0.256514612132E+02   -0.91502E-03   -0.83022E-05   120   0.258E-02    0.466E-03
RMM:  16    -0.256518733791E+02   -0.41217E-03   -0.17078E-05   105   0.148E-02    0.309E-03
RMM:  17    -0.256522361126E+02   -0.36273E-03   -0.24304E-05   106   0.127E-02    0.235E-03
RMM:  18    -0.256523303148E+02   -0.94202E-04   -0.62031E-06   103   0.986E-03    0.182E-03
RMM:  19    -0.256524183204E+02   -0.88006E-04   -0.57457E-06   104   0.632E-03    0.674E-04
RMM:  20    -0.256524415257E+02   -0.23205E-04   -0.73826E-07    36   0.243E-03    0.359E-04
RMM:  21    -0.256524573421E+02   -0.15816E-04   -0.86148E-07    89   0.310E-03    0.529E-04
RMM:  22    -0.256524602150E+02   -0.28729E-05   -0.56959E-08    22   0.199E-03
   1 F= -.25652460E+02 E0= -.25638355E+02  d E =-.256525E+02
 curvature:   0.00 expect dE= 0.000E+00 dE for cont linesearch  0.000E+00
 trial: gam= 0.00000 g(F)=  0.184E-01 g(S)=  0.000E+00 ort = 0.000E+00 (trialstep = 0.100E+01)
 search vector abs. value=  0.184E-01
 bond charge predicted
       N       E                     dE             d eps       ncg     rms          rms(c)
DAV:   1    -0.256661100762E+02   -0.13653E-01   -0.69593E+00   178   0.882E+00    0.699E-02
RMM:   2    -0.256690007777E+02   -0.28907E-02   -0.30778E-02   172   0.690E-01    0.576E-02
RMM:   3    -0.256689836875E+02    0.17090E-04   -0.67251E-04   174   0.907E-02    0.537E-02
RMM:   4    -0.256688724159E+02    0.11127E-03   -0.20929E-04   172   0.453E-02    0.188E-02
RMM:   5    -0.256688686304E+02    0.37854E-05   -0.13851E-04   172   0.379E-02    0.138E-02
RMM:   6    -0.256688608316E+02    0.77988E-05   -0.25487E-05   103   0.161E-02
   2 F= -.25668861E+02 E0= -.25654756E+02  d E =-.164006E-01
 trial-energy change:   -0.016401  1 .order   -0.016259   -0.018357   -0.014162
 step:   3.0808(harm=  4.3757)  dis= 0.02578  next Energy=   -25.684867 (dE=-0.324E-01)
 bond charge predicted
       N       E                     dE             d eps       ncg     rms          rms(c)
DAV:   1    -0.256773895726E+02   -0.85209E-02   -0.30166E+01   172   0.184E+01    0.144E-01
RMM:   2    -0.256899843751E+02   -0.12595E-01   -0.13347E-01   172   0.145E+00    0.121E-01
RMM:   3    -0.256899107328E+02    0.73642E-04   -0.28398E-03   174   0.188E-01    0.112E-01
RMM:   4    -0.256894364986E+02    0.47423E-03   -0.83136E-04   172   0.909E-02    0.422E-02
RMM:   5    -0.256894329200E+02    0.35785E-05   -0.69363E-04   172   0.852E-02    0.301E-02
RMM:   6    -0.256893943625E+02    0.38558E-04   -0.11393E-04   172   0.331E-02    0.482E-03
RMM:   7    -0.256893974527E+02   -0.30902E-05   -0.53614E-06    96   0.734E-03
   3 F= -.25689397E+02 E0= -.25675293E+02  d E =-.369372E-01
 curvature:  -1.87 expect dE=-0.890E-02 dE for cont linesearch -0.311E-02
 ZBRENT: increasing intervall
 opt :   7.2423  next Energy=   -25.676519 (dE=-0.241E-01)
 bond charge predicted
       N       E                     dE             d eps       ncg     rms          rms(c)
DAV:   1    -0.256299181607E+02    0.59476E-01   -0.12113E+02   172   0.370E+01    0.287E-01
RMM:   2    -0.256823333379E+02   -0.52415E-01   -0.55241E-01   172   0.301E+00    0.246E-01
RMM:   3    -0.256820202514E+02    0.31309E-03   -0.11315E-02   174   0.379E-01    0.226E-01
RMM:   4    -0.256802318596E+02    0.17884E-02   -0.26445E-03   172   0.166E-01    0.101E-01
RMM:   5    -0.256801262262E+02    0.10563E-03   -0.34078E-03   172   0.191E-01    0.571E-02
RMM:   6    -0.256799787317E+02    0.14749E-03   -0.38512E-04   172   0.611E-02    0.109E-02
RMM:   7    -0.256799910589E+02   -0.12327E-04   -0.30873E-05   106   0.182E-02    0.427E-03
RMM:   8    -0.256800026629E+02   -0.11604E-04   -0.45999E-06    97   0.931E-03    0.207E-03
RMM:   9    -0.256800171023E+02   -0.14439E-04   -0.11245E-06    92   0.327E-03    0.128E-03
RMM:  10    -0.256800400745E+02   -0.22972E-04   -0.28377E-06   101   0.400E-03    0.209E-03
RMM:  11    -0.256800567861E+02   -0.16712E-04   -0.19210E-06    99   0.335E-03    0.469E-04
RMM:  12    -0.256800662034E+02   -0.94173E-05   -0.34861E-07    33   0.189E-03
   4 F= -.25680066E+02 E0= -.25665961E+02  d E =-.276060E-01
 curvature:   7.72 expect dE= 0.159E+00 dE for cont linesearch  0.384E-01
 ZBRENT: bracketing found
 ZBRENT: interpolating
 opt :   4.6065  next Energy=   -25.693619 (dE=-0.412E-01)
 bond charge predicted
       N       E                     dE             d eps       ncg     rms          rms(c)
DAV:   1    -0.256733336464E+02    0.67231E-02   -0.48434E+01   172   0.233E+01    0.203E-01
RMM:   2    -0.256940433657E+02   -0.20710E-01   -0.22200E-01   172   0.186E+00    0.146E-01
RMM:   3    -0.256939505117E+02    0.92854E-04   -0.46404E-03   174   0.240E-01    0.135E-01
RMM:   4    -0.256932905942E+02    0.65992E-03   -0.12379E-03   172   0.113E-01    0.513E-02
RMM:   5    -0.256933025522E+02   -0.11958E-04   -0.81829E-04   172   0.930E-02    0.280E-02
RMM:   6    -0.256932693635E+02    0.33189E-04   -0.10817E-04   172   0.325E-02    0.498E-03
RMM:   7    -0.256932754348E+02   -0.60713E-05   -0.40075E-06    96   0.629E-03
   5 F= -.25693275E+02 E0= -.25679171E+02  d E =-.408152E-01
 curvature:  -0.85 expect dE=-0.579E-02 dE for cont linesearch -0.278E-05
 trial: gam= 0.38560 g(F)=  0.683E-02 g(S)=  0.000E+00 ort =-0.245E-03 (trialstep = 0.172E+01)
 search vector abs. value=  0.937E-02
 bond charge predicted
       N       E                     dE             d eps       ncg     rms          rms(c)
DAV:   1    -0.256986595267E+02   -0.53902E-02   -0.10546E+01   172   0.108E+01    0.894E-02
RMM:   2    -0.257031072563E+02   -0.44477E-02   -0.47125E-02   172   0.846E-01    0.703E-02
RMM:   3    -0.257030883317E+02    0.18925E-04   -0.10111E-03   175   0.111E-01    0.660E-02
RMM:   4    -0.257029364592E+02    0.15187E-03   -0.32478E-04   172   0.569E-02    0.226E-02
RMM:   5    -0.257029531795E+02   -0.16720E-04   -0.19764E-04   172   0.449E-02    0.159E-02
RMM:   6    -0.257029415673E+02    0.11612E-04   -0.32824E-05   109   0.181E-02    0.273E-03
RMM:   7    -0.257029439924E+02   -0.24251E-05   -0.25961E-06    95   0.628E-03
   6 F= -.25702944E+02 E0= -.25688839E+02  d E =-.966856E-02
 trial-energy change:   -0.009669  1 .order   -0.009603   -0.011600   -0.007607
 step:   4.3476(harm=  5.0004)  dis= 0.03515  next Energy=   -25.708980 (dE=-0.157E-01)
 bond charge predicted
       N       E                     dE             d eps       ncg     rms          rms(c)
DAV:   1    -0.257000132475E+02    0.29283E-02   -0.24568E+01   172   0.165E+01    0.138E-01
RMM:   2    -0.257104505839E+02   -0.10437E-01   -0.11091E-01   172   0.130E+00    0.108E-01
RMM:   3    -0.257103891776E+02    0.61406E-04   -0.23696E-03   174   0.171E-01    0.101E-01
RMM:   4    -0.257100182476E+02    0.37093E-03   -0.67041E-04   172   0.822E-02    0.389E-02
RMM:   5    -0.257100258940E+02   -0.76464E-05   -0.53256E-04   172   0.739E-02    0.238E-02
RMM:   6    -0.257100000328E+02    0.25861E-04   -0.73681E-05   170   0.265E-02    0.407E-03
RMM:   7    -0.257100034639E+02   -0.34311E-05   -0.32284E-06    95   0.577E-03
   7 F= -.25710003E+02 E0= -.25695899E+02  d E =-.167280E-01
 curvature:  -3.34 expect dE=-0.552E-02 dE for cont linesearch -0.234E-03
 ZBRENT: extrapolating
 opt :   4.9369  next Energy=   -25.710242 (dE=-0.170E-01)
 bond charge predicted
       N       E                     dE             d eps       ncg     rms          rms(c)
DAV:   1    -0.257097703812E+02    0.22965E-03   -0.12358E+00   184   0.370E+00    0.299E-02
RMM:   2    -0.257102884490E+02   -0.51807E-03   -0.54716E-03   172   0.288E-01    0.243E-02
RMM:   3    -0.257102864666E+02    0.19824E-05   -0.11788E-04   174   0.380E-02    0.228E-02
RMM:   4    -0.257102702048E+02    0.16262E-04   -0.42045E-05   125   0.208E-02    0.720E-03
RMM:   5    -0.257102758171E+02   -0.56123E-05   -0.22749E-05    97   0.166E-02
   8 F= -.25710276E+02 E0= -.25696171E+02  d E =-.170004E-01
 curvature:  -3.41 expect dE=-0.671E-02 dE for cont linesearch -0.139E-04
 trial: gam= 0.25185 g(F)=  0.197E-02 g(S)=  0.000E+00 ort = 0.196E-03 (trialstep = 0.236E+01)
 search vector abs. value=  0.266E-02
 bond charge predicted
       N       E                     dE             d eps       ncg     rms          rms(c)
DAV:   1    -0.257116298621E+02   -0.13597E-02   -0.56287E+00   172   0.790E+00    0.604E-02
RMM:   2    -0.257139730340E+02   -0.23432E-02   -0.24445E-02   172   0.611E-01    0.514E-02
RMM:   3    -0.257139595988E+02    0.13435E-04   -0.51371E-04   174   0.793E-02    0.481E-02
RMM:   4    -0.257138743404E+02    0.85258E-04   -0.17347E-04   172   0.414E-02    0.167E-02
RMM:   5    -0.257138842359E+02   -0.98955E-05   -0.12411E-04   172   0.355E-02    0.127E-02
RMM:   6    -0.257138780288E+02    0.62071E-05   -0.18534E-05    97   0.138E-02
   9 F= -.25713878E+02 E0= -.25699773E+02  d E =-.360221E-02
 trial-energy change:   -0.003602  1 .order   -0.003628   -0.004768   -0.002488
 step:   4.9444(harm=  4.9444)  dis= 0.02624  next Energy=   -25.715262 (dE=-0.499E-02)
 bond charge predicted
       N       E                     dE             d eps       ncg     rms          rms(c)
DAV:   1    -0.257128526123E+02    0.10316E-02   -0.67051E+00   172   0.862E+00    0.652E-02
RMM:   2    -0.257156410306E+02   -0.27884E-02   -0.29083E-02   172   0.668E-01    0.567E-02
RMM:   3    -0.257156233414E+02    0.17689E-04   -0.61125E-04   174   0.866E-02    0.533E-02
RMM:   4    -0.257155181326E+02    0.10521E-03   -0.20649E-04   172   0.452E-02    0.189E-02
RMM:   5    -0.257155284605E+02   -0.10328E-04   -0.15712E-04   172   0.399E-02    0.140E-02
RMM:   6    -0.257155207039E+02    0.77566E-05   -0.22705E-05    99   0.152E-02
  10 F= -.25715521E+02 E0= -.25701416E+02  d E =-.524489E-02
 curvature:  -3.26 expect dE=-0.360E-02 dE for cont linesearch -0.100E-04
 trial: gam= 0.48810 g(F)=  0.110E-02 g(S)=  0.000E+00 ort = 0.904E-04 (trialstep = 0.288E+01)
 search vector abs. value=  0.182E-02
 bond charge predicted
       N       E                     dE             d eps       ncg     rms          rms(c)
DAV:   1    -0.257159047030E+02   -0.37624E-03   -0.57201E+00   172   0.798E+00    0.577E-02
RMM:   2    -0.257182806440E+02   -0.23759E-02   -0.24572E-02   172   0.611E-01    0.525E-02
RMM:   3    -0.257182631973E+02    0.17447E-04   -0.53920E-04   175   0.809E-02    0.499E-02
RMM:   4    -0.257181598662E+02    0.10333E-03   -0.17648E-04   172   0.415E-02    0.181E-02
RMM:   5    -0.257181616766E+02   -0.18104E-05   -0.16140E-04   172   0.399E-02    0.138E-02
RMM:   6    -0.257181548439E+02    0.68327E-05   -0.18258E-05    97   0.140E-02
  11 F= -.25718155E+02 E0= -.25704050E+02  d E =-.263414E-02
 trial-energy change:   -0.002634  1 .order   -0.002555   -0.003304   -0.001806
 step:   5.1032(harm=  6.3532)  dis= 0.01609  next Energy=   -25.718888 (dE=-0.337E-02)
 bond charge predicted
       N       E                     dE             d eps       ncg     rms          rms(c)
DAV:   1    -0.257177667807E+02    0.39490E-03   -0.34064E+00   172   0.616E+00    0.443E-02
RMM:   2    -0.257191790023E+02   -0.14122E-02   -0.14619E-02   172   0.471E-01    0.407E-02
RMM:   3    -0.257191680968E+02    0.10906E-04   -0.32203E-04   175   0.625E-02    0.388E-02
RMM:   4    -0.257191059447E+02    0.62152E-04   -0.10575E-04   172   0.322E-02    0.141E-02
RMM:   5    -0.257191070916E+02   -0.11469E-05   -0.98719E-05   172   0.312E-02
  12 F= -.25719107E+02 E0= -.25705002E+02  d E =-.358639E-02
 curvature:  -4.40 expect dE=-0.234E-02 dE for cont linesearch -0.963E-04
 ZBRENT: extrapolating
 opt :   6.1436  next Energy=   -25.719211 (dE=-0.369E-02)
 bond charge predicted
       N       E                     dE             d eps       ncg     rms          rms(c)
DAV:   1    -0.257188886435E+02    0.21730E-03   -0.74464E-01   184   0.288E+00    0.223E-02
RMM:   2    -0.257191986135E+02   -0.30997E-03   -0.32399E-03   172   0.221E-01    0.185E-02
RMM:   3    -0.257191965462E+02    0.20674E-05   -0.70612E-05   162   0.294E-02
  13 F= -.25719197E+02 E0= -.25705092E+02  d E =-.367584E-02
 curvature:  -4.75 expect dE=-0.379E-02 dE for cont linesearch -0.260E-04
 trial: gam= 0.93431 g(F)=  0.799E-03 g(S)=  0.000E+00 ort =-0.100E-03 (trialstep = 0.292E+01)
 search vector abs. value=  0.221E-02
 bond charge predicted
       N       E                     dE             d eps       ncg     rms          rms(c)
DAV:   1    -0.257179245466E+02    0.12741E-02   -0.71309E+00   172   0.888E+00    0.645E-02
RMM:   2    -0.257208917339E+02   -0.29672E-02   -0.30531E-02   172   0.678E-01    0.606E-02
RMM:   3    -0.257208649441E+02    0.26790E-04   -0.67877E-04   174   0.907E-02    0.578E-02
RMM:   4    -0.257207257019E+02    0.13924E-03   -0.23575E-04   172   0.480E-02    0.212E-02
RMM:   5    -0.257207300223E+02   -0.43204E-05   -0.22068E-04   172   0.466E-02    0.157E-02
RMM:   6    -0.257207215129E+02    0.85094E-05   -0.24325E-05   101   0.162E-02
  14 F= -.25720722E+02 E0= -.25706617E+02  d E =-.152497E-02
 trial-energy change:   -0.001525  1 .order   -0.001355   -0.002062   -0.000648
 step:   3.6319(harm=  4.2644)  dis= 0.01480  next Energy=   -25.720802 (dE=-0.161E-02)
 bond charge predicted
       N       E                     dE             d eps       ncg     rms          rms(c)
DAV:   1    -0.257207044180E+02    0.25604E-04   -0.41750E-01   184   0.215E+00    0.156E-02
RMM:   2    -0.257208790948E+02   -0.17468E-03   -0.17858E-03   172   0.163E-01    0.142E-02
RMM:   3    -0.257208776089E+02    0.14860E-05   -0.33744E-05    95   0.218E-02
  15 F= -.25720878E+02 E0= -.25706773E+02  d E =-.168106E-02
 curvature:  -5.18 expect dE=-0.166E-02 dE for cont linesearch -0.518E-05
 trial: gam= 0.06971 g(F)=  0.320E-03 g(S)=  0.000E+00 ort = 0.470E-04 (trialstep = 0.307E+01)
 search vector abs. value=  0.338E-03
 bond charge predicted
       N       E                     dE             d eps       ncg     rms          rms(c)
DAV:   1    -0.257210206969E+02   -0.14160E-03   -0.12071E+00   172   0.366E+00    0.313E-02
RMM:   2    -0.257215198571E+02   -0.49916E-03   -0.53562E-03   172   0.285E-01    0.240E-02
RMM:   3    -0.257215201404E+02   -0.28332E-06   -0.11449E-04   174   0.374E-02    0.220E-02
RMM:   4    -0.257215103592E+02    0.97812E-05   -0.42843E-05   126   0.211E-02
  16 F= -.25721510E+02 E0= -.25707406E+02  d E =-.632750E-03
 trial-energy change:   -0.000633  1 .order   -0.000646   -0.000992   -0.000301
 step:   4.3983(harm=  4.3983)  dis= 0.00545  next Energy=   -25.721589 (dE=-0.712E-03)
 bond charge predicted
       N       E                     dE             d eps       ncg     rms          rms(c)
DAV:   1    -0.257214364579E+02    0.83683E-04   -0.22781E-01   172   0.159E+00    0.174E-02
RMM:   2    -0.257215317062E+02   -0.95248E-04   -0.10605E-03   172   0.125E-01    0.805E-03
RMM:   3    -0.257215338243E+02   -0.21181E-05   -0.18689E-05    92   0.166E-02
  17 F= -.25721534E+02 E0= -.25707429E+02  d E =-.656215E-03
 curvature:  -2.29 expect dE=-0.341E-03 dE for cont linesearch -0.687E-04
 ZBRENT: interpolating
 opt :   3.7236  next Energy=   -25.721543 (dE=-0.665E-03)
 bond charge predicted
       N       E                     dE             d eps       ncg     rms          rms(c)
DAV:   1    -0.257215283783E+02    0.33279E-05   -0.57951E-02   172   0.801E-01    0.705E-03
RMM:   2    -0.257215532560E+02   -0.24878E-04   -0.26620E-04   172   0.634E-02    0.420E-03
RMM:   3    -0.257215532940E+02   -0.37968E-07   -0.49553E-06    90   0.870E-03
  18 F= -.25721553E+02 E0= -.25707449E+02  d E =-.675685E-03
 curvature:  -1.08 expect dE=-0.897E-04 dE for cont linesearch -0.389E-05
 ZBRENT: interpolating
 opt :   3.9938  next Energy=   -25.721559 (dE=-0.682E-03)
 bond charge predicted
       N       E                     dE             d eps       ncg     rms          rms(c)
DAV:   1    -0.257215481589E+02    0.50971E-05   -0.92689E-03   184   0.320E-01    0.391E-03
RMM:   2    -0.257215526276E+02   -0.44687E-05   -0.43078E-05   121   0.260E-02
  19 F= -.25721553E+02 E0= -.25707448E+02  d E =-.675019E-03
 curvature:  -1.64 expect dE=-0.164E-03 dE for cont linesearch -0.126E-04
 ZBRENT: interpolating
 opt :   3.8335  next Energy=   -25.721555 (dE=-0.678E-03)
 bond charge predicted
       N       E                     dE             d eps       ncg     rms          rms(c)
DAV:   1    -0.257215539445E+02   -0.57857E-05   -0.32451E-03   172   0.190E-01    0.261E-03
RMM:   2    -0.257215553362E+02   -0.13917E-05   -0.14546E-05    88   0.155E-02
  20 F= -.25721555E+02 E0= -.25707451E+02  d E =-.677727E-03
 curvature:  -0.25 expect dE=-0.222E-04 dE for cont linesearch -0.371E-06
 ZBRENT: bisectioning
 opt :   3.9136  next Energy=   -25.721557 (dE=-0.679E-03)
 bond charge predicted
       N       E                     dE             d eps       ncg     rms          rms(c)
DAV:   1    -0.257215549508E+02   -0.10063E-05   -0.80827E-04   172   0.949E-02    0.148E-03
RMM:   2    -0.257215556675E+02   -0.71670E-06   -0.40292E-06    87   0.813E-03
  21 F= -.25721556E+02 E0= -.25707451E+02  d E =-.678059E-03
 curvature:  -0.96 expect dE=-0.893E-04 dE for cont linesearch -0.176E-05
 ZBRENT: interpolating
 opt :   3.8715  next Energy=   -25.721556 (dE=-0.678E-03)
 bond charge predicted
       N       E                     dE             d eps       ncg     rms          rms(c)
DAV:   1    -0.257215563544E+02   -0.14036E-05   -0.22282E-04   164   0.499E-02    0.763E-04
RMM:   2    -0.257215566417E+02   -0.28736E-06   -0.11079E-06    84   0.428E-03
  22 F= -.25721557E+02 E0= -.25707452E+02  d E =-.679033E-03
 curvature:  -0.23 expect dE=-0.212E-04 dE for cont linesearch -0.108E-08
 trial: gam= 0.32412 g(F)=  0.912E-04 g(S)=  0.000E+00 ort =-0.125E-05 (trialstep = 0.323E+01)
 search vector abs. value=  0.126E-03
 bond charge predicted
       N       E                     dE             d eps       ncg     rms          rms(c)
DAV:   1    -0.257215580825E+02   -0.17281E-05   -0.49530E-01   172   0.234E+00    0.188E-02
RMM:   2    -0.257217613484E+02   -0.20327E-03   -0.21625E-03   172   0.182E-01    0.148E-02
RMM:   3    -0.257217596866E+02    0.16618E-05   -0.41851E-05   112   0.241E-02
  23 F= -.25721760E+02 E0= -.25707655E+02  d E =-.203045E-03
 trial-energy change:   -0.000203  1 .order   -0.000168   -0.000293   -0.000043
 step:   3.7765(harm=  3.7765)  dis= 0.00357  next Energy=   -25.721728 (dE=-0.171E-03)
 bond charge predicted
       N       E                     dE             d eps       ncg     rms          rms(c)
DAV:   1    -0.257217668602E+02   -0.55118E-05   -0.14714E-02   184   0.406E-01    0.473E-03
RMM:   2    -0.257217718086E+02   -0.49484E-05   -0.57970E-05   149   0.305E-02
  24 F= -.25721772E+02 E0= -.25707667E+02  d E =-.215167E-03
 curvature:  -2.62 expect dE=-0.114E-03 dE for cont linesearch -0.324E-05
 ZBRENT: increasing intervall
 opt :   4.8757  next Energy=   -25.721785 (dE=-0.228E-03)
 bond charge predicted
       N       E                     dE             d eps       ncg     rms          rms(c)
DAV:   1    -0.257217729587E+02   -0.60985E-05   -0.57727E-02   172   0.800E-01    0.620E-03
RMM:   2    -0.257217955648E+02   -0.22606E-04   -0.24187E-04   172   0.611E-02    0.693E-03
RMM:   3    -0.257217950837E+02    0.48118E-06   -0.45439E-06    88   0.814E-03
  25 F= -.25721795E+02 E0= -.25707690E+02  d E =-.238442E-03
 curvature: -10.43 expect dE=-0.553E-03 dE for cont linesearch -0.423E-05
 trial: gam= 0.42606 g(F)=  0.530E-04 g(S)=  0.000E+00 ort = 0.714E-05 (trialstep = 0.356E+01)
 search vector abs. value=  0.820E-04
 bond charge predicted
       N       E                     dE             d eps       ncg     rms          rms(c)
DAV:   1    -0.257218126025E+02   -0.17038E-04   -0.39204E-01   172   0.208E+00    0.161E-02
RMM:   2    -0.257219710437E+02   -0.15844E-03   -0.16658E-03   172   0.157E-01    0.135E-02
RMM:   3    -0.257219685800E+02    0.24636E-05   -0.30514E-05    96   0.209E-02
  26 F= -.25721969E+02 E0= -.25707864E+02  d E =-.173496E-03
 trial-energy change:   -0.000173  1 .order   -0.000133   -0.000199   -0.000067
 step:   4.1275(harm=  5.3388)  dis= 0.00284  next Energy=   -25.721974 (dE=-0.179E-03)
 bond charge predicted
       N       E                     dE             d eps       ncg     rms          rms(c)
DAV:   1    -0.257219783129E+02   -0.72693E-05   -0.10363E-02   184   0.341E-01    0.414E-03
RMM:   2    -0.257219807754E+02   -0.24624E-05   -0.35506E-05   101   0.245E-02
  27 F= -.25721981E+02 E0= -.25707876E+02  d E =-.185692E-03
 curvature:  -2.10 expect dE=-0.723E-04 dE for cont linesearch -0.129E-04
 ZBRENT: increasing intervall
 opt :   5.2692  next Energy=   -25.722011 (dE=-0.215E-03)
 bond charge predicted
       N       E                     dE             d eps       ncg     rms          rms(c)
DAV:   1    -0.257219955173E+02   -0.17204E-04   -0.40526E-02   172   0.670E-01    0.487E-03
RMM:   2    -0.257220102501E+02   -0.14733E-04   -0.16232E-04   165   0.494E-02    0.576E-03
RMM:   3    -0.257220097255E+02    0.52464E-06   -0.30940E-06    86   0.665E-03
  28 F= -.25722010E+02 E0= -.25707905E+02  d E =-.214642E-03
 curvature:  -4.86 expect dE=-0.205E-03 dE for cont linesearch -0.918E-05
 ZBRENT: increasing intervall
 opt :   7.5527  next Energy=   -25.722015 (dE=-0.220E-03)
 bond charge predicted
       N       E                     dE             d eps       ncg     rms          rms(c)
DAV:   1    -0.257219646751E+02    0.45575E-04   -0.16181E-01   172   0.134E+00    0.107E-02
RMM:   2    -0.257220286226E+02   -0.63947E-04   -0.68296E-04   172   0.101E-01    0.897E-03
RMM:   3    -0.257220272668E+02    0.13558E-05   -0.11972E-05    92   0.133E-02
  29 F= -.25722027E+02 E0= -.25707923E+02  d E =-.232183E-03
 curvature:  -2.99 expect dE=-0.251E-03 dE for cont linesearch -0.107E-04
 ZBRENT: bracketing found
 ZBRENT: interpolating
 opt :   6.2293  next Energy=   -25.722016 (dE=-0.221E-03)
 bond charge predicted
       N       E                     dE             d eps       ncg     rms          rms(c)
DAV:   1    -0.257219965668E+02    0.32056E-04   -0.53842E-02   172   0.771E-01    0.591E-03
RMM:   2    -0.257220207900E+02   -0.24223E-04   -0.24113E-04   171   0.596E-02    0.427E-03
RMM:   3    -0.257220209607E+02   -0.17074E-06   -0.46964E-06    86   0.832E-03
  30 F= -.25722021E+02 E0= -.25707916E+02  d E =-.225877E-03
 curvature:  -1.66 expect dE=-0.973E-04 dE for cont linesearch -0.103E-04
 ZBRENT: interpolating
 opt :   6.9813  next Energy=   -25.722032 (dE=-0.237E-03)
 bond charge predicted
       N       E                     dE             d eps       ncg     rms          rms(c)
DAV:   1    -0.257220186909E+02    0.20991E-05   -0.17387E-02   172   0.438E-01    0.454E-03
RMM:   2    -0.257220259694E+02   -0.72785E-05   -0.80472E-05   156   0.343E-02
  31 F= -.25722026E+02 E0= -.25707921E+02  d E =-.230886E-03
 curvature:  -0.79 expect dE=-0.541E-04 dE for cont linesearch -0.236E-05
 ZBRENT: bisectioning
 opt :   6.6053  next Energy=   -25.722032 (dE=-0.237E-03)
 bond charge predicted
       N       E                     dE             d eps       ncg     rms          rms(c)
DAV:   1    -0.257220220600E+02   -0.33691E-05   -0.42982E-03   172   0.219E-01    0.311E-03
RMM:   2    -0.257220237150E+02   -0.16550E-05   -0.17678E-05    86   0.169E-02
  32 F= -.25722024E+02 E0= -.25707919E+02  d E =-.228631E-03
 curvature:  -1.91 expect dE=-0.118E-03 dE for cont linesearch -0.744E-05
 ZBRENT: interpolating
 opt :   6.8057  next Energy=   -25.722027 (dE=-0.232E-03)
 bond charge predicted
       N       E                     dE             d eps       ncg     rms          rms(c)
DAV:   1    -0.257220248336E+02   -0.27736E-05   -0.12230E-03   172   0.117E-01    0.155E-03
RMM:   2    -0.257220252849E+02   -0.45133E-06   -0.55360E-06    86   0.952E-03
  33 F= -.25722025E+02 E0= -.25707921E+02  d E =-.230201E-03
 curvature:  -0.35 expect dE=-0.223E-04 dE for cont linesearch -0.448E-08
 trial: gam= 1.31179 g(F)=  0.632E-04 g(S)=  0.000E+00 ort =-0.102E-05 (trialstep = 0.171E+01)
 search vector abs. value=  0.202E-03
 bond charge predicted
       N       E                     dE             d eps       ncg     rms          rms(c)
DAV:   1    -0.257220349642E+02   -0.10131E-04   -0.22242E-01   172   0.157E+00    0.107E-02
RMM:   2    -0.257221262572E+02   -0.91293E-04   -0.92732E-04   172   0.117E-01    0.103E-02
RMM:   3    -0.257221253782E+02    0.87898E-06   -0.16783E-05    91   0.156E-02
  34 F= -.25722125E+02 E0= -.25708021E+02  d E =-.100093E-03
 trial-energy change:   -0.000100  1 .order   -0.000071   -0.000106   -0.000036
 step:   2.5933(harm=  2.5933)  dis= 0.00324  next Energy=   -25.722105 (dE=-0.802E-04)
 bond charge predicted
       N       E                     dE             d eps       ncg     rms          rms(c)
DAV:   1    -0.257221355289E+02   -0.92717E-05   -0.59589E-02   172   0.814E-01    0.585E-03
RMM:   2    -0.257221588238E+02   -0.23295E-04   -0.23586E-04   171   0.595E-02    0.641E-03
RMM:   3    -0.257221585006E+02    0.32316E-06   -0.42547E-06    89   0.774E-03
  35 F= -.25722159E+02 E0= -.25708054E+02  d E =-.133216E-03
 curvature:  -4.23 expect dE=-0.140E-03 dE for cont linesearch -0.106E-04
 ZBRENT: increasing intervall
 opt :   4.3581  next Energy=   -25.722201 (dE=-0.175E-03)
 bond charge predicted
       N       E                     dE             d eps       ncg     rms          rms(c)
DAV:   1    -0.257221134692E+02    0.45355E-04   -0.23698E-01   172   0.162E+00    0.120E-02
RMM:   2    -0.257222098580E+02   -0.96389E-04   -0.98522E-04   172   0.121E-01    0.107E-02
RMM:   3    -0.257222089031E+02    0.95494E-06   -0.17658E-05    92   0.160E-02
  36 F= -.25722209E+02 E0= -.25708104E+02  d E =-.183618E-03
 curvature: -16.84 expect dE=-0.533E-03 dE for cont linesearch -0.376E-05
 ZBRENT: bracketing found
 ZBRENT: interpolating
 opt :   3.9520  next Energy=   -25.722210 (dE=-0.185E-03)
 bond charge predicted
       N       E                     dE             d eps       ncg     rms          rms(c)
DAV:   1    -0.257221930886E+02    0.16769E-04   -0.12314E-02   184   0.367E-01    0.328E-03
RMM:   2    -0.257221988646E+02   -0.57760E-05   -0.57367E-05   144   0.292E-02
  37 F= -.25722199E+02 E0= -.25708094E+02  d E =-.173580E-03
 curvature:  -6.10 expect dE=-0.247E-03 dE for cont linesearch -0.689E-04
 ZBRENT: interpolating
 opt :   4.3080  next Energy=   -25.722209 (dE=-0.184E-03)
 bond charge predicted
       N       E                     dE             d eps       ncg     rms          rms(c)
DAV:   1    -0.257222014141E+02   -0.83255E-05   -0.95226E-03   172   0.325E-01    0.382E-03
RMM:   2    -0.257222051246E+02   -0.37105E-05   -0.39656E-05   110   0.249E-02
  38 F= -.25722205E+02 E0= -.25708100E+02  d E =-.179840E-03
 curvature:  -0.01 expect dE=-0.460E-06 dE for cont linesearch -0.292E-08
 ZBRENT: bisectioning
 opt :   4.1300  next Energy=   -25.722206 (dE=-0.181E-03)
 bond charge predicted
       N       E                     dE             d eps       ncg     rms          rms(c)
DAV:   1    -0.257222016293E+02   -0.21516E-06   -0.23650E-03   172   0.162E-01    0.219E-03
RMM:   2    -0.257222025983E+02   -0.96902E-06   -0.10261E-05    87   0.130E-02
  39 F= -.25722203E+02 E0= -.25708098E+02  d E =-.177313E-03
 curvature:  -5.03 expect dE=-0.177E-03 dE for cont linesearch -0.259E-04
 ZBRENT: interpolating
 opt :   4.2789  next Energy=   -25.722205 (dE=-0.180E-03)
 bond charge predicted
       N       E                     dE             d eps       ncg     rms          rms(c)
DAV:   1    -0.257222044656E+02   -0.28364E-05   -0.16624E-03   172   0.136E-01    0.154E-03
RMM:   2    -0.257222051983E+02   -0.73261E-06   -0.70459E-06    86   0.108E-02
  40 F= -.25722205E+02 E0= -.25708100E+02  d E =-.179913E-03
 curvature:  -0.02 expect dE=-0.541E-06 dE for cont linesearch -0.174E-08
 trial: gam= 0.12721 g(F)=  0.304E-04 g(S)=  0.000E+00 ort = 0.444E-05 (trialstep = 0.222E+01)
 search vector abs. value=  0.348E-04
 bond charge predicted
       N       E                     dE             d eps       ncg     rms          rms(c)
DAV:   1    -0.257222347646E+02   -0.30299E-04   -0.65488E-02   172   0.852E-01    0.682E-03
RMM:   2    -0.257222630840E+02   -0.28319E-04   -0.28903E-04   172   0.659E-02    0.571E-03
RMM:   3    -0.257222633222E+02   -0.23823E-06   -0.50444E-06    87   0.871E-03
  41 F= -.25722263E+02 E0= -.25708159E+02  d E =-.581239E-04
 trial-energy change:   -0.000058  1 .order   -0.000047   -0.000069   -0.000025
 step:   3.4540(harm=  3.4540)  dis= 0.00185  next Energy=   -25.722259 (dE=-0.535E-04)
 reached required accuracy - stopping structural energy minimisation
