BLACK                                   
           1
    25.340363    0.000000    0.000000
     0.000000   26.604231    0.000000
     0.000000    0.000000   25.280812
   Ag
  13
Direct configuration=     1
   0.72208380  0.57215331  0.63732732
   0.59402232  0.52094950  0.51124383
   0.51133847  0.71966035  0.55824817
   0.60744167  0.68442459  0.72012999
   0.64850212  0.50160545  0.60683165
   0.58297493  0.74984531  0.63807497
   0.54945225  0.54825961  0.60747855
   0.54627039  0.61847560  0.51889009
   0.61616291  0.69634654  0.54942877
   0.62105636  0.58309025  0.68028080
   0.67539160  0.67114716  0.63627399
   0.54945121  0.64945425  0.63033470
   0.64569666  0.59814720  0.56321722
Direct configuration=     2
   0.72231384  0.57224868  0.63759514
   0.59397774  0.52084074  0.51092454
   0.51104332  0.71952848  0.55813617
   0.60737062  0.68433929  0.72019724
   0.64848824  0.50127280  0.60685204
   0.58313750  0.74991589  0.63814776
   0.54929872  0.54819232  0.60726860
   0.54602352  0.61858243  0.51915370
   0.61625751  0.69666102  0.54913323
   0.62126989  0.58338703  0.68031855
   0.67523178  0.67114488  0.63649498
   0.54968333  0.64961162  0.63035781
   0.64574868  0.59783393  0.56318028
Direct configuration=     3
   0.72279248  0.57244711  0.63815240
   0.59388498  0.52061446  0.51026016
   0.51042919  0.71925409  0.55790313
   0.60722278  0.68416180  0.72033717
   0.64845936  0.50058062  0.60689447
   0.58347577  0.75006276  0.63829923
   0.54897927  0.54805232  0.60683176
   0.54550984  0.61880472  0.51970223
   0.61645437  0.69731539  0.54851829
   0.62171418  0.58400454  0.68039711
   0.67489923  0.67114014  0.63695480
   0.55016632  0.64993908  0.63040589
   0.64585693  0.59718209  0.56310342
Direct configuration=     4
   0.72374978  0.57284398  0.63926694
   0.59369947  0.52016188  0.50893142
   0.50920092  0.71870531  0.55743705
   0.60692709  0.68380682  0.72061702
   0.64840161  0.49919627  0.60697933
   0.58415232  0.75035649  0.63860216
   0.54834035  0.54777230  0.60595806
   0.54448248  0.61924930  0.52079927
   0.61684808  0.69862413  0.54728839
   0.62260277  0.58523956  0.68055421
   0.67423412  0.67113067  0.63787446
   0.55113229  0.65059399  0.63050206
   0.64607341  0.59587840  0.56294968
Direct configuration=     5
   0.72314345  0.57259261  0.63856102
   0.59381697  0.52044853  0.50977301
   0.50997887  0.71905289  0.55773225
   0.60711437  0.68403166  0.72043977
   0.64843819  0.50007308  0.60692558
   0.58372381  0.75017045  0.63841029
   0.54874502  0.54794966  0.60651144
   0.54513318  0.61896771  0.52010443
   0.61659871  0.69779521  0.54806737
   0.62203996  0.58445733  0.68045470
   0.67465538  0.67113667  0.63729197
   0.55052047  0.65017919  0.63044115
   0.64593630  0.59670412  0.56304705
Direct configuration=     6
   0.72313123  0.57261684  0.63887681
   0.59371164  0.52041011  0.50944617
   0.50976372  0.71874063  0.55775801
   0.60682194  0.68406158  0.72090313
   0.64841004  0.49996279  0.60699175
   0.58400640  0.75025119  0.63825765
   0.54904868  0.54806251  0.60631041
   0.54486992  0.61914375  0.52065497
   0.61677504  0.69781864  0.54794786
   0.62222073  0.58441414  0.68011574
   0.67427173  0.67109658  0.63707493
   0.55094341  0.65036795  0.63017579
   0.64587022  0.59661238  0.56324683
Direct configuration=     7
   0.72311258  0.57265381  0.63935864
   0.59355094  0.52035150  0.50894747
   0.50943544  0.71826421  0.55779732
   0.60637575  0.68410725  0.72161012
   0.64836709  0.49979451  0.60709270
   0.58443757  0.75037438  0.63802475
   0.54951199  0.54823470  0.60600368
   0.54446823  0.61941233  0.52149497
   0.61704408  0.69785440  0.54776551
   0.62249654  0.58434823  0.67959856
   0.67368637  0.67103543  0.63674378
   0.55158872  0.65065597  0.62977090
   0.64576940  0.59647239  0.56355165
Direct configuration=     8
   0.72310839  0.57266211  0.63946676
   0.59351488  0.52033835  0.50883557
   0.50936178  0.71815730  0.55780614
   0.60627563  0.68411750  0.72176876
   0.64835745  0.49975675  0.60711536
   0.58453432  0.75040203  0.63797249
   0.54961596  0.54827334  0.60593486
   0.54437809  0.61947260  0.52168346
   0.61710445  0.69786242  0.54772459
   0.62255842  0.58433345  0.67948250
   0.67355503  0.67102170  0.63666947
   0.55173352  0.65072059  0.62968005
   0.64574678  0.59644097  0.56362005
Direct configuration=     9
   0.72311453  0.57253781  0.63960817
   0.59348366  0.52058703  0.50884193
   0.50935792  0.71798343  0.55788440
   0.60598287  0.68413651  0.72177038
   0.64842214  0.49982249  0.60708157
   0.58482655  0.75038661  0.63783923
   0.54988280  0.54829048  0.60585681
   0.54418608  0.61948365  0.52183231
   0.61706955  0.69778438  0.54746378
   0.62244213  0.58410445  0.67948554
   0.67322627  0.67121066  0.63677919
   0.55222861  0.65083726  0.62984838
   0.64562158  0.59639436  0.56346836
Direct configuration=    10
   0.72312122  0.57240217  0.63976247
   0.59344960  0.52085838  0.50884888
   0.50935370  0.71779371  0.55796980
   0.60566341  0.68415725  0.72177215
   0.64849273  0.49989422  0.60704471
   0.58514543  0.75036979  0.63769382
   0.55017397  0.54830918  0.60577166
   0.54397656  0.61949570  0.52199473
   0.61703147  0.69769923  0.54717919
   0.62231523  0.58385457  0.67948885
   0.67286755  0.67141683  0.63689890
   0.55276884  0.65096456  0.63003206
   0.64548497  0.59634351  0.56330284
Direct configuration=    11
   0.72293590  0.57238560  0.63976398
   0.59343535  0.52102961  0.50870743
   0.50938010  0.71767400  0.55813786
   0.60538352  0.68416392  0.72184092
   0.64874363  0.49988371  0.60697560
   0.58550376  0.75052741  0.63751567
   0.55012871  0.54823425  0.60584301
   0.54371774  0.61945268  0.52193967
   0.61694977  0.69760905  0.54681517
   0.62229385  0.58363612  0.67979875
   0.67262584  0.67142704  0.63695060
   0.55307993  0.65092360  0.63014764
   0.64566658  0.59661211  0.56332375
Direct configuration=    12
   0.72279289  0.57237281  0.63976515
   0.59342435  0.52116175  0.50859827
   0.50940048  0.71758161  0.55826756
   0.60516752  0.68416907  0.72189398
   0.64893725  0.49987560  0.60692228
   0.58578028  0.75064905  0.63737819
   0.55009378  0.54817642  0.60589807
   0.54351801  0.61941949  0.52189719
   0.61688672  0.69753947  0.54653427
   0.62227736  0.58346755  0.68003790
   0.67243931  0.67143492  0.63699049
   0.55332000  0.65089199  0.63023682
   0.64580673  0.59681939  0.56333989
Direct configuration=    13
   0.72272596  0.57236682  0.63976570
   0.59341921  0.52122360  0.50854718
   0.50941001  0.71753837  0.55832826
   0.60506642  0.68417148  0.72191882
   0.64902788  0.49987181  0.60689732
   0.58590971  0.75070598  0.63731384
   0.55007743  0.54814935  0.60592384
   0.54342453  0.61940395  0.52187730
   0.61685721  0.69750690  0.54640278
   0.62226964  0.58338864  0.68014984
   0.67235201  0.67143861  0.63700916
   0.55343237  0.65087719  0.63027857
   0.64587233  0.59691641  0.56334744
Direct configuration=    14
   0.72260273  0.57244708  0.63978526
   0.59349595  0.52154748  0.50855989
   0.50944629  0.71739793  0.55864550
   0.60482871  0.68423073  0.72209895
   0.64905582  0.49999966  0.60663019
   0.58637990  0.75080388  0.63697521
   0.55019695  0.54808402  0.60600802
   0.54322200  0.61925975  0.52188742
   0.61677078  0.69748929  0.54608681
   0.62223534  0.58320993  0.68054299
   0.67201681  0.67143554  0.63707282
   0.55370842  0.65073924  0.63014036
   0.64588498  0.59691459  0.56332664
Direct configuration=    15
   0.72257291  0.57246651  0.63979000
   0.59351452  0.52162587  0.50856296
   0.50945507  0.71736393  0.55872227
   0.60477118  0.68424508  0.72214255
   0.64906258  0.50003060  0.60656554
   0.58649370  0.75082757  0.63689325
   0.55022588  0.54806820  0.60602839
   0.54317299  0.61922485  0.52188987
   0.61674987  0.69748503  0.54601034
   0.62222703  0.58316668  0.68063814
   0.67193569  0.67143480  0.63708823
   0.55377524  0.65070585  0.63010691
   0.64588805  0.59691415  0.56332160
Direct configuration=    16
   0.72265299  0.57257243  0.63979367
   0.59355507  0.52165058  0.50853283
   0.50939924  0.71739791  0.55881195
   0.60478644  0.68429426  0.72209357
   0.64896528  0.50000961  0.60643949
   0.58656270  0.75061564  0.63686129
   0.55032580  0.54808094  0.60608331
   0.54323591  0.61920602  0.52198096
   0.61678672  0.69745421  0.54605872
   0.62223378  0.58330952  0.68067708
   0.67175811  0.67141552  0.63709575
   0.55382284  0.65068568  0.63000931
   0.64575982  0.59686679  0.56332214
Direct configuration=    17
   0.72268780  0.57261847  0.63979527
   0.59357270  0.52166132  0.50851972
   0.50937497  0.71741268  0.55885093
   0.60479308  0.68431564  0.72207228
   0.64892299  0.50000049  0.60638470
   0.58659269  0.75052352  0.63684739
   0.55036923  0.54808647  0.60610718
   0.54326327  0.61919784  0.52202055
   0.61680274  0.69744081  0.54607975
   0.62223671  0.58337161  0.68069400
   0.67168092  0.67140714  0.63709902
   0.55384353  0.65067692  0.62996688
   0.64570408  0.59684621  0.56332237
Direct configuration=    18
   0.72267018  0.57259516  0.63979446
   0.59356377  0.52165588  0.50852636
   0.50938726  0.71740520  0.55883119
   0.60478972  0.68430482  0.72208306
   0.64894440  0.50000511  0.60641244
   0.58657751  0.75057016  0.63685443
   0.55034724  0.54808367  0.60609509
   0.54324942  0.61920198  0.52200050
   0.61679463  0.69744759  0.54606910
   0.62223522  0.58334018  0.68068543
   0.67172000  0.67141138  0.63709737
   0.55383305  0.65068135  0.62998836
   0.64573230  0.59685663  0.56332225
Direct configuration=    19
   0.72267724  0.57260450  0.63979479
   0.59356734  0.52165806  0.50852370
   0.50938234  0.71740820  0.55883909
   0.60479106  0.68430915  0.72207875
   0.64893583  0.50000326  0.60640133
   0.58658359  0.75055148  0.63685161
   0.55035605  0.54808479  0.60609993
   0.54325496  0.61920032  0.52200853
   0.61679788  0.69744488  0.54607336
   0.62223582  0.58335276  0.68068886
   0.67170435  0.67140968  0.63709803
   0.55383724  0.65067958  0.62997976
   0.64572100  0.59685246  0.56332230
Direct configuration=    20
   0.72267305  0.57259896  0.63979460
   0.59356522  0.52165677  0.50852528
   0.50938525  0.71740642  0.55883441
   0.60479027  0.68430658  0.72208131
   0.64894092  0.50000435  0.60640792
   0.58657998  0.75056256  0.63685328
   0.55035082  0.54808413  0.60609706
   0.54325167  0.61920131  0.52200377
   0.61679595  0.69744649  0.54607084
   0.62223546  0.58334530  0.68068683
   0.67171363  0.67141069  0.63709764
   0.55383476  0.65068063  0.62998486
   0.64572770  0.59685493  0.56332227
Direct configuration=    21
   0.72267514  0.57260173  0.63979469
   0.59356628  0.52165741  0.50852449
   0.50938379  0.71740731  0.55883675
   0.60479066  0.68430787  0.72208003
   0.64893837  0.50000381  0.60640463
   0.58658178  0.75055702  0.63685245
   0.55035343  0.54808446  0.60609850
   0.54325332  0.61920081  0.52200615
   0.61679691  0.69744568  0.54607210
   0.62223564  0.58334903  0.68068785
   0.67170899  0.67141018  0.63709784
   0.55383600  0.65068010  0.62998231
   0.64572435  0.59685369  0.56332228
Direct configuration=    22
   0.72267404  0.57260027  0.63979464
   0.59356573  0.52165707  0.50852490
   0.50938456  0.71740684  0.55883552
   0.60479045  0.68430719  0.72208070
   0.64893971  0.50000409  0.60640636
   0.58658083  0.75055993  0.63685288
   0.55035206  0.54808429  0.60609774
   0.54325245  0.61920107  0.52200490
   0.61679641  0.69744610  0.54607143
   0.62223555  0.58334707  0.68068731
   0.67171143  0.67141045  0.63709773
   0.55383535  0.65068038  0.62998365
   0.64572611  0.59685435  0.56332228
Direct configuration=    23
   0.72262762  0.57271480  0.63976040
   0.59358645  0.52163682  0.50843610
   0.50935378  0.71744971  0.55888371
   0.60475911  0.68436726  0.72217373
   0.64894278  0.50000113  0.60634758
   0.58664757  0.75049732  0.63683685
   0.55041271  0.54804994  0.60619121
   0.54327098  0.61917814  0.52203885
   0.61681101  0.69744956  0.54597644
   0.62227263  0.58336613  0.68072299
   0.67167413  0.67139668  0.63709535
   0.55380667  0.65063229  0.62993402
   0.64567926  0.59681933  0.56336282
Direct configuration=    24
   0.72261971  0.57273431  0.63975456
   0.59358997  0.52163337  0.50842097
   0.50934853  0.71745701  0.55889192
   0.60475377  0.68437749  0.72218958
   0.64894331  0.50000063  0.60633757
   0.58665894  0.75048665  0.63683411
   0.55042304  0.54804409  0.60620713
   0.54327413  0.61917424  0.52204463
   0.61681350  0.69745015  0.54596026
   0.62227895  0.58336937  0.68072907
   0.67166777  0.67139434  0.63709495
   0.55380179  0.65062409  0.62992557
   0.64567127  0.59681337  0.56336973
Direct configuration=    25
   0.72260390  0.57277333  0.63974290
   0.59359703  0.52162647  0.50839072
   0.50933805  0.71747162  0.55890834
   0.60474310  0.68439795  0.72222127
   0.64894435  0.49999962  0.60631754
   0.58668168  0.75046533  0.63682865
   0.55044370  0.54803238  0.60623897
   0.54328044  0.61916643  0.52205620
   0.61681848  0.69745133  0.54592790
   0.62229158  0.58337586  0.68074123
   0.67165507  0.67138965  0.63709413
   0.55379202  0.65060771  0.62990866
   0.64565531  0.59680144  0.56338354
Direct configuration=    26
   0.72258607  0.57286538  0.63969196
   0.59360506  0.52162085  0.50836412
   0.50935368  0.71750211  0.55895470
   0.60469514  0.68444753  0.72224867
   0.64902524  0.49996220  0.60628857
   0.58675585  0.75046437  0.63679079
   0.55045388  0.54791517  0.60625873
   0.54324571  0.61914012  0.52204492
   0.61679905  0.69742611  0.54584703
   0.62230282  0.58337831  0.68082899
   0.67161291  0.67142828  0.63710808
   0.55377463  0.65059966  0.62995574
   0.64563466  0.59680901  0.56337776
Direct configuration=    27
   0.72258321  0.57288015  0.63968378
   0.59360635  0.52161995  0.50835985
   0.50935619  0.71750700  0.55896214
   0.60468744  0.68445549  0.72225307
   0.64903822  0.49995620  0.60628392
   0.58676775  0.75046422  0.63678472
   0.55045551  0.54789635  0.60626190
   0.54324014  0.61913590  0.52204311
   0.61679593  0.69742206  0.54583404
   0.62230462  0.58337871  0.68084308
   0.67160614  0.67143448  0.63711032
   0.55377184  0.65059837  0.62996330
   0.64563135  0.59681023  0.56337683
Direct configuration=    28
   0.72257749  0.57290971  0.63966743
   0.59360892  0.52161815  0.50835131
   0.50936121  0.71751679  0.55897702
   0.60467205  0.68447141  0.72226186
   0.64906418  0.49994419  0.60627462
   0.58679156  0.75046391  0.63677256
   0.55045878  0.54785873  0.60626825
   0.54322899  0.61912745  0.52203949
   0.61678970  0.69741397  0.54580808
   0.62230823  0.58337949  0.68087126
   0.67159260  0.67144688  0.63711479
   0.55376626  0.65059579  0.62997842
   0.64562472  0.59681266  0.56337497
Direct configuration=    29
   0.72256605  0.57296881  0.63963472
   0.59361407  0.52161454  0.50833423
   0.50937125  0.71753636  0.55900678
   0.60464126  0.68450324  0.72227946
   0.64911611  0.49992017  0.60625602
   0.58683918  0.75046330  0.63674826
   0.55046532  0.54778347  0.60628093
   0.54320669  0.61911056  0.52203224
   0.61677722  0.69739777  0.54575616
   0.62231544  0.58338107  0.68092761
   0.67156554  0.67147168  0.63712375
   0.55375510  0.65059062  0.63000865
   0.64561146  0.59681753  0.56337125
Direct configuration=    30
   0.72257268  0.57293455  0.63965368
   0.59361109  0.52161663  0.50834413
   0.50936543  0.71752502  0.55898953
   0.60465911  0.68448479  0.72226926
   0.64908602  0.49993409  0.60626680
   0.58681158  0.75046365  0.63676235
   0.55046153  0.54782709  0.60627358
   0.54321962  0.61912035  0.52203644
   0.61678445  0.69740716  0.54578625
   0.62231126  0.58338016  0.68089495
   0.67158122  0.67145731  0.63711856
   0.55376157  0.65059362  0.62999113
   0.64561915  0.59681471  0.56337341
Direct configuration=    31
   0.72256891  0.57295402  0.63964291
   0.59361278  0.52161544  0.50833850
   0.50936874  0.71753146  0.55899933
   0.60464897  0.68449528  0.72227505
   0.64910312  0.49992618  0.60626068
   0.58682727  0.75046345  0.63675434
   0.55046368  0.54780230  0.60627776
   0.54321227  0.61911479  0.52203406
   0.61678035  0.69740183  0.54576915
   0.62231363  0.58338067  0.68091351
   0.67157231  0.67146548  0.63712151
   0.55375789  0.65059191  0.63000108
   0.64561478  0.59681631  0.56337218
Direct configuration=    32
   0.72257080  0.57294429  0.63964829
   0.59361194  0.52161603  0.50834131
   0.50936708  0.71752824  0.55899443
   0.60465404  0.68449003  0.72227216
   0.64909457  0.49993013  0.60626374
   0.58681942  0.75046355  0.63675834
   0.55046260  0.54781469  0.60627567
   0.54321594  0.61911757  0.52203525
   0.61678240  0.69740449  0.54577770
   0.62231245  0.58338041  0.68090423
   0.67157677  0.67146139  0.63712003
   0.55375973  0.65059276  0.62999610
   0.64561696  0.59681551  0.56337279
Direct configuration=    33
   0.72256979  0.57294947  0.63964542
   0.59361239  0.52161572  0.50833981
   0.50936796  0.71752996  0.55899704
   0.60465133  0.68449283  0.72227370
   0.64909912  0.49992802  0.60626211
   0.58682360  0.75046350  0.63675621
   0.55046318  0.54780809  0.60627678
   0.54321399  0.61911609  0.52203461
   0.61678131  0.69740307  0.54577314
   0.62231308  0.58338055  0.68090917
   0.67157439  0.67146357  0.63712082
   0.55375875  0.65059231  0.62999876
   0.64561580  0.59681593  0.56337247
Direct configuration=    34
   0.72255439  0.57300553  0.63961203
   0.59361949  0.52161911  0.50834429
   0.50937934  0.71754644  0.55903842
   0.60460547  0.68453664  0.72227255
   0.64918359  0.49992463  0.60623261
   0.58687795  0.75045206  0.63672234
   0.55052342  0.54775876  0.60629530
   0.54319280  0.61910090  0.52206324
   0.61675302  0.69736810  0.54572854
   0.62228992  0.58338462  0.68093272
   0.67152978  0.67149825  0.63711908
   0.55375843  0.65055005  0.63002360
   0.64557710  0.59681402  0.56337533
Direct configuration=    35
   0.72254644  0.57303444  0.63959480
   0.59362316  0.52162086  0.50834660
   0.50938520  0.71755493  0.55905975
   0.60458181  0.68455924  0.72227196
   0.64922716  0.49992287  0.60621739
   0.58690598  0.75044616  0.63670487
   0.55055449  0.54773332  0.60630485
   0.54318187  0.61909306  0.52207801
   0.61673843  0.69735007  0.54570553
   0.62227798  0.58338672  0.68094486
   0.67150678  0.67151614  0.63711818
   0.55375826  0.65052826  0.63003642
   0.64555714  0.59681304  0.56337681
Direct configuration=    36
   0.72253056  0.57309226  0.63956035
   0.59363049  0.52162435  0.50835122
   0.50939693  0.71757193  0.55910243
   0.60453450  0.68460444  0.72227078
   0.64931429  0.49991937  0.60618696
   0.58696204  0.75043436  0.63666994
   0.55061663  0.54768244  0.60632395
   0.54316001  0.61907740  0.52210754
   0.61670925  0.69731400  0.54565952
   0.62225410  0.58339092  0.68096915
   0.67146076  0.67155191  0.63711638
   0.55375793  0.65048466  0.63006205
   0.64551722  0.59681107  0.56337977
Direct configuration=    37
   0.72253421  0.57307896  0.63956828
   0.59362880  0.52162355  0.50835016
   0.50939423  0.71756802  0.55909261
   0.60454539  0.68459404  0.72227105
   0.64929424  0.49992017  0.60619396
   0.58694914  0.75043708  0.63667798
   0.55060233  0.54769415  0.60631956
   0.54316504  0.61908100  0.52210074
   0.61671597  0.69732230  0.54567011
   0.62225959  0.58338995  0.68096356
   0.67147135  0.67154368  0.63711680
   0.55375801  0.65049469  0.63005615
   0.64552640  0.59681152  0.56337909
Direct configuration=    38
   0.72253101  0.57309062  0.63956133
   0.59363028  0.52162425  0.50835109
   0.50939660  0.71757145  0.55910122
   0.60453584  0.68460316  0.72227081
   0.64931181  0.49991947  0.60618782
   0.58696045  0.75043470  0.63667093
   0.55061487  0.54768388  0.60632341
   0.54316063  0.61907784  0.52210670
   0.61671008  0.69731502  0.54566083
   0.62225477  0.58339080  0.68096846
   0.67146207  0.67155089  0.63711643
   0.55375794  0.65048590  0.63006133
   0.64551835  0.59681112  0.56337968
Direct configuration=    39
   0.72253261  0.57308479  0.63956481
   0.59362954  0.52162390  0.50835062
   0.50939541  0.71756973  0.55909692
   0.60454062  0.68459860  0.72227093
   0.64930303  0.49991982  0.60619089
   0.58695479  0.75043589  0.63667445
   0.55060860  0.54768901  0.60632148
   0.54316283  0.61907942  0.52210372
   0.61671302  0.69731866  0.54566547
   0.62225718  0.58339038  0.68096601
   0.67146671  0.67154729  0.63711661
   0.55375797  0.65049030  0.63005874
   0.64552238  0.59681132  0.56337938
Direct configuration=    40
   0.72253127  0.57308967  0.63956190
   0.59363016  0.52162420  0.50835101
   0.50939640  0.71757117  0.55910052
   0.60453662  0.68460241  0.72227083
   0.64931038  0.49991953  0.60618832
   0.58695953  0.75043489  0.63667151
   0.55061385  0.54768472  0.60632309
   0.54316099  0.61907810  0.52210622
   0.61671056  0.69731562  0.54566159
   0.62225517  0.58339073  0.68096806
   0.67146282  0.67155030  0.63711646
   0.55375795  0.65048662  0.63006090
   0.64551901  0.59681116  0.56337963
Direct configuration=    41
   0.72253446  0.57310046  0.63955245
   0.59363608  0.52161471  0.50835871
   0.50939353  0.71755893  0.55913495
   0.60451861  0.68459924  0.72227301
   0.64933968  0.49993780  0.60616734
   0.58694610  0.75040909  0.63664924
   0.55066086  0.54770437  0.60633339
   0.54313700  0.61907278  0.52214475
   0.61670284  0.69731311  0.54567403
   0.62226158  0.58339736  0.68094019
   0.67145947  0.67154948  0.63710192
   0.55373873  0.65048264  0.63003213
   0.64551576  0.59681914  0.56339794
