  10  10   0   0
  0.1481772E+04  0.2440102E-08  0.2499980E-08  0.2429052E-08  0.5000000E-15
  1.000000000000000E-004
  CAR 
 BLACK                                   
     -0.18539399     -9.70199877  301     -3.96006606      1.00000000
     -9.702  0.0000E+00  0.0000E+00
     -9.670  0.0000E+00  0.0000E+00
     -9.639  0.0000E+00  0.0000E+00
     -9.607  0.0000E+00  0.0000E+00
     -9.575  0.0000E+00  0.0000E+00
     -9.543  0.0000E+00  0.0000E+00
     -9.512  0.0000E+00  0.0000E+00
     -9.480  0.1190E-15  0.3775E-17
     -9.448  0.1039E-12  0.3301E-14
     -9.417  0.4097E-10  0.1303E-11
     -9.385  0.7347E-08  0.2344E-09
     -9.353  0.6018E-06  0.1932E-07
     -9.321  0.2263E-04  0.7373E-06
     -9.290  0.3931E-03  0.1321E-04
     -9.258  0.3175E-02  0.1139E-03
     -9.226  0.1199E-01  0.4942E-03
     -9.194  0.2128E-01  0.1169E-02
     -9.163  0.1786E-01  0.1736E-02
     -9.131  0.8095E-02  0.1992E-02
     -9.099  0.9202E-02  0.2284E-02
     -9.068  0.2729E-01  0.3150E-02
     -9.036  0.4624E-01  0.4617E-02
     -9.004  0.4480E-01  0.6038E-02
     -8.972  0.3317E-01  0.7090E-02
     -8.941  0.2000E-01  0.7724E-02
     -8.909  0.7947E-02  0.7976E-02
     -8.877  0.6643E-02  0.8187E-02
     -8.846  0.2076E-01  0.8846E-02
     -8.814  0.4052E-01  0.1013E-01
     -8.782  0.4513E-01  0.1156E-01
     -8.750  0.4321E-01  0.1293E-01
     -8.719  0.5232E-01  0.1459E-01
     -8.687  0.6711E-01  0.1672E-01
     -8.655  0.8330E-01  0.1936E-01
     -8.623  0.7942E-01  0.2188E-01
     -8.592  0.4715E-01  0.2338E-01
     -8.560  0.1620E-01  0.2389E-01
     -8.528  0.3337E-02  0.2400E-01
     -8.497  0.2806E-02  0.2409E-01
     -8.465  0.1054E-01  0.2442E-01
     -8.433  0.2127E-01  0.2510E-01
     -8.401  0.2398E-01  0.2586E-01
     -8.370  0.2585E-01  0.2668E-01
     -8.338  0.3576E-01  0.2781E-01
     -8.306  0.4314E-01  0.2918E-01
     -8.275  0.4786E-01  0.3070E-01
     -8.243  0.5214E-01  0.3235E-01
     -8.211  0.4367E-01  0.3374E-01
     -8.179  0.3385E-01  0.3481E-01
     -8.148  0.3462E-01  0.3591E-01
     -8.116  0.3363E-01  0.3698E-01
     -8.084  0.2513E-01  0.3777E-01
     -8.052  0.2022E-01  0.3842E-01
     -8.021  0.2572E-01  0.3923E-01
     -7.989  0.3024E-01  0.4019E-01
     -7.957  0.2876E-01  0.4110E-01
     -7.926  0.1990E-01  0.4173E-01
     -7.894  0.1074E-01  0.4208E-01
     -7.862  0.1392E-01  0.4252E-01
     -7.830  0.2297E-01  0.4325E-01
     -7.799  0.2648E-01  0.4409E-01
     -7.767  0.3486E-01  0.4519E-01
     -7.735  0.4377E-01  0.4658E-01
     -7.704  0.3166E-01  0.4758E-01
     -7.672  0.1376E-01  0.4802E-01
     -7.640  0.1493E-01  0.4849E-01
     -7.608  0.3367E-01  0.4956E-01
     -7.577  0.4782E-01  0.5108E-01
     -7.545  0.5097E-01  0.5270E-01
     -7.513  0.5608E-01  0.5448E-01
     -7.481  0.5457E-01  0.5621E-01
     -7.450  0.4617E-01  0.5767E-01
     -7.418  0.4163E-01  0.5899E-01
     -7.386  0.3986E-01  0.6026E-01
     -7.355  0.3696E-01  0.6143E-01
     -7.323  0.3504E-01  0.6254E-01
     -7.291  0.3876E-01  0.6377E-01
     -7.259  0.4479E-01  0.6519E-01
     -7.228  0.4824E-01  0.6672E-01
     -7.196  0.5270E-01  0.6839E-01
     -7.164  0.7161E-01  0.7066E-01
     -7.133  0.9835E-01  0.7378E-01
     -7.101  0.1070E+00  0.7718E-01
     -7.069  0.9215E-01  0.8010E-01
     -7.037  0.7804E-01  0.8258E-01
     -7.006  0.8531E-01  0.8528E-01
     -6.974  0.8803E-01  0.8808E-01
     -6.942  0.6870E-01  0.9026E-01
     -6.910  0.5577E-01  0.9203E-01
     -6.879  0.4778E-01  0.9354E-01
     -6.847  0.3859E-01  0.9477E-01
     -6.815  0.3727E-01  0.9595E-01
     -6.784  0.3454E-01  0.9704E-01
     -6.752  0.2476E-01  0.9783E-01
     -6.720  0.2007E-01  0.9847E-01
     -6.688  0.2450E-01  0.9924E-01
     -6.657  0.2614E-01  0.1001E+00
     -6.625  0.2598E-01  0.1009E+00
     -6.593  0.2170E-01  0.1016E+00
     -6.562  0.1038E-01  0.1019E+00
     -6.530  0.2429E-02  0.1020E+00
     -6.498  0.2674E-03  0.1020E+00
     -6.466  0.1368E-04  0.1020E+00
     -6.435  0.3232E-06  0.1020E+00
     -6.403  0.3502E-08  0.1020E+00
     -6.371  0.1732E-10  0.1020E+00
     -6.339  0.3896E-13  0.1020E+00
     -6.308  0.4200E-16  0.1020E+00
     -6.276  0.0000E+00  0.1020E+00
     -6.244  0.0000E+00  0.1020E+00
     -6.213  0.3150E-16  0.1020E+00
     -6.181  0.3146E-13  0.1020E+00
     -6.149  0.1436E-10  0.1020E+00
     -6.117  0.2978E-08  0.1020E+00
     -6.086  0.2820E-06  0.1020E+00
     -6.054  0.1225E-04  0.1020E+00
     -6.022  0.2454E-03  0.1020E+00
     -5.991  0.2283E-02  0.1021E+00
     -5.959  0.9921E-02  0.1024E+00
     -5.927  0.2025E-01  0.1030E+00
     -5.895  0.1946E-01  0.1037E+00
     -5.864  0.8808E-02  0.1039E+00
     -5.832  0.1871E-02  0.1040E+00
     -5.800  0.1856E-03  0.1040E+00
     -5.768  0.8540E-05  0.1040E+00
     -5.737  0.1812E-06  0.1040E+00
     -5.705  0.1762E-08  0.1040E+00
     -5.673  0.7820E-11  0.1040E+00
     -5.642  0.5035E-13  0.1040E+00
     -5.610  0.1560E-10  0.1040E+00
     -5.578  0.3199E-08  0.1040E+00
     -5.546  0.2995E-06  0.1040E+00
     -5.515  0.1286E-04  0.1040E+00
     -5.483  0.2548E-03  0.1040E+00
     -5.451  0.2345E-02  0.1041E+00
     -5.420  0.1008E-01  0.1044E+00
     -5.388  0.2035E-01  0.1050E+00
     -5.356  0.1934E-01  0.1057E+00
     -5.324  0.8659E-02  0.1059E+00
     -5.293  0.1819E-02  0.1060E+00
     -5.261  0.1785E-03  0.1060E+00
     -5.229  0.8121E-05  0.1060E+00
     -5.197  0.1704E-06  0.1060E+00
     -5.166  0.1638E-08  0.1060E+00
     -5.134  0.7188E-11  0.1060E+00
     -5.102  0.2748E-13  0.1060E+00
     -5.071  0.6664E-11  0.1060E+00
     -5.039  0.1535E-08  0.1060E+00
     -5.007  0.1612E-06  0.1060E+00
     -4.975  0.7763E-05  0.1060E+00
     -4.944  0.1723E-03  0.1060E+00
     -4.912  0.1774E-02  0.1061E+00
     -4.880  0.8527E-02  0.1063E+00
     -4.849  0.1924E-01  0.1069E+00
     -4.817  0.2043E-01  0.1076E+00
     -4.785  0.1022E-01  0.1079E+00
     -4.753  0.2401E-02  0.1080E+00
     -4.722  0.2636E-03  0.1080E+00
     -4.690  0.1344E-04  0.1080E+00
     -4.658  0.3160E-06  0.1080E+00
     -4.626  0.3410E-08  0.1080E+00
     -4.595  0.1680E-10  0.1080E+00
     -4.563  0.3762E-13  0.1080E+00
     -4.531  0.4200E-16  0.1080E+00
     -4.500  0.1050E-16  0.1080E+00
     -4.468  0.1246E-13  0.1080E+00
     -4.436  0.6353E-11  0.1080E+00
     -4.404  0.1472E-08  0.1080E+00
     -4.373  0.1557E-06  0.1080E+00
     -4.341  0.7544E-05  0.1080E+00
     -4.309  0.1685E-03  0.1080E+00
     -4.278  0.1746E-02  0.1081E+00
     -4.246  0.8444E-02  0.1083E+00
     -4.214  0.1917E-01  0.1089E+00
     -4.182  0.2048E-01  0.1096E+00
     -4.151  0.1031E-01  0.1099E+00
     -4.119  0.2437E-02  0.1100E+00
     -4.087  0.2692E-03  0.1100E+00
     -4.055  0.1381E-04  0.1100E+00
     -4.024  0.3269E-06  0.1100E+00
     -3.992  0.3551E-08  0.1100E+00
     -3.960  0.1760E-10  0.1100E+00
     -3.929  0.3967E-13  0.1100E+00
     -3.897  0.4200E-16  0.1100E+00
     -3.865  0.0000E+00  0.1100E+00
     -3.833  0.0000E+00  0.1100E+00
     -3.802  0.0000E+00  0.1100E+00
     -3.770  0.0000E+00  0.1100E+00
     -3.738  0.0000E+00  0.1100E+00
     -3.707  0.0000E+00  0.1100E+00
     -3.675  0.0000E+00  0.1100E+00
     -3.643  0.0000E+00  0.1100E+00
     -3.611  0.0000E+00  0.1100E+00
     -3.580  0.0000E+00  0.1100E+00
     -3.548  0.0000E+00  0.1100E+00
     -3.516  0.0000E+00  0.1100E+00
     -3.484  0.0000E+00  0.1100E+00
     -3.453  0.0000E+00  0.1100E+00
     -3.421  0.3500E-17  0.1100E+00
     -3.389  0.3447E-14  0.1100E+00
     -3.358  0.2046E-11  0.1100E+00
     -3.326  0.5514E-09  0.1100E+00
     -3.294  0.6773E-07  0.1100E+00
     -3.262  0.3810E-05  0.1100E+00
     -3.231  0.9866E-04  0.1100E+00
     -3.199  0.1184E-02  0.1100E+00
     -3.167  0.6621E-02  0.1103E+00
     -3.136  0.1737E-01  0.1108E+00
     -3.104  0.2144E-01  0.1115E+00
     -3.072  0.1247E-01  0.1119E+00
     -3.040  0.3415E-02  0.1120E+00
     -3.009  0.6187E-03  0.1120E+00
     -2.977  0.1881E-02  0.1121E+00
     -2.945  0.8832E-02  0.1123E+00
     -2.913  0.2039E-01  0.1130E+00
     -2.882  0.2612E-01  0.1138E+00
     -2.850  0.2665E-01  0.1147E+00
     -2.818  0.2652E-01  0.1155E+00
     -2.787  0.2428E-01  0.1163E+00
     -2.755  0.2457E-01  0.1171E+00
     -2.723  0.1957E-01  0.1177E+00
     -2.691  0.8308E-02  0.1179E+00
     -2.660  0.1690E-02  0.1180E+00
     -2.628  0.1609E-03  0.1180E+00
     -2.596  0.7108E-05  0.1180E+00
     -2.565  0.1448E-06  0.1180E+00
     -2.533  0.1351E-08  0.1180E+00
     -2.501  0.5752E-11  0.1180E+00
     -2.469  0.3269E-12  0.1180E+00
     -2.438  0.1083E-09  0.1180E+00
     -2.406  0.1691E-07  0.1180E+00
     -2.374  0.1207E-05  0.1180E+00
     -2.342  0.3959E-04  0.1180E+00
     -2.311  0.6006E-03  0.1180E+00
     -2.279  0.4240E-02  0.1182E+00
     -2.247  0.1401E-01  0.1186E+00
     -2.216  0.2177E-01  0.1193E+00
     -2.184  0.1594E-01  0.1198E+00
     -2.152  0.5490E-02  0.1200E+00
     -2.120  0.8859E-03  0.1200E+00
     -2.089  0.6661E-04  0.1200E+00
     -2.057  0.2936E-05  0.1200E+00
     -2.025  0.2315E-04  0.1200E+00
     -1.994  0.3995E-03  0.1200E+00
     -1.962  0.3210E-02  0.1201E+00
     -1.930  0.1206E-01  0.1205E+00
     -1.898  0.2130E-01  0.1212E+00
     -1.867  0.1772E-01  0.1217E+00
     -1.835  0.6939E-02  0.1220E+00
     -1.803  0.1274E-02  0.1220E+00
     -1.771  0.1091E-03  0.1220E+00
     -1.740  0.4329E-05  0.1220E+00
     -1.708  0.7911E-07  0.1220E+00
     -1.676  0.6621E-09  0.1220E+00
     -1.645  0.2526E-11  0.1220E+00
     -1.613  0.4382E-14  0.1220E+00
     -1.581  0.0000E+00  0.1220E+00
     -1.549  0.0000E+00  0.1220E+00
     -1.518  0.0000E+00  0.1220E+00
     -1.486  0.0000E+00  0.1220E+00
     -1.454  0.0000E+00  0.1220E+00
     -1.423  0.0000E+00  0.1220E+00
     -1.391  0.5145E-15  0.1220E+00
     -1.359  0.3800E-12  0.1220E+00
     -1.327  0.1273E-09  0.1220E+00
     -1.296  0.1942E-07  0.1220E+00
     -1.264  0.1354E-05  0.1220E+00
     -1.232  0.4341E-04  0.1220E+00
     -1.200  0.6436E-03  0.1220E+00
     -1.169  0.4442E-02  0.1222E+00
     -1.137  0.1435E-01  0.1226E+00
     -1.105  0.2189E-01  0.1233E+00
     -1.074  0.1667E-01  0.1238E+00
     -1.042  0.1141E-01  0.1242E+00
     -1.010  0.1766E-01  0.1248E+00
     -0.978  0.2192E-01  0.1255E+00
     -0.947  0.1542E-01  0.1259E+00
     -0.915  0.1402E-01  0.1264E+00
     -0.883  0.2331E-01  0.1271E+00
     -0.852  0.2988E-01  0.1281E+00
     -0.820  0.2929E-01  0.1290E+00
     -0.788  0.2100E-01  0.1297E+00
     -0.756  0.9777E-02  0.1300E+00
     -0.725  0.8706E-02  0.1303E+00
     -0.693  0.1795E-01  0.1308E+00
     -0.661  0.2128E-01  0.1315E+00
     -0.630  0.1199E-01  0.1319E+00
     -0.598  0.3175E-02  0.1320E+00
     -0.566  0.3931E-03  0.1320E+00
     -0.534  0.2263E-04  0.1320E+00
     -0.503  0.6018E-06  0.1320E+00
     -0.471  0.7347E-08  0.1320E+00
     -0.439  0.4097E-10  0.1320E+00
     -0.407  0.1040E-12  0.1320E+00
     -0.376  0.1190E-15  0.1320E+00
     -0.344  0.0000E+00  0.1320E+00
     -0.312  0.0000E+00  0.1320E+00
     -0.281  0.0000E+00  0.1320E+00
     -0.249  0.0000E+00  0.1320E+00
     -0.217  0.0000E+00  0.1320E+00
     -0.185  0.0000E+00  0.1320E+00
