   10   10 1000    1
  0.1481772E+04  0.2440102E-08  0.2499980E-08  0.2429052E-08  0.5000000E-15
  1.000000000000000E-004
  CAR 
 BLACK                                   
    110      1     66
 
  0.0000000E+00  0.0000000E+00  0.0000000E+00  0.1000000E+01
    1       -9.201999   1.000000
    2       -9.051058   1.000000
    3       -9.043520   1.000000
    4       -8.979548   1.000000
    5       -8.826030   1.000000
    6       -8.805791   1.000000
    7       -8.738909   1.000000
    8       -8.714128   1.000000
    9       -8.665909   1.000000
   10       -8.658724   1.000000
   11       -8.647514   1.000000
   12       -8.620777   1.000000
   13       -8.436398   1.000000
   14       -8.352726   1.000000
   15       -8.312190   1.000000
   16       -8.252365   1.000000
   17       -8.249452   1.000000
   18       -8.170693   1.000000
   19       -8.119786   1.000000
   20       -8.026421   1.000000
   21       -7.964135   1.000000
   22       -7.839259   1.000000
   23       -7.756725   1.000000
   24       -7.740867   1.000000
   25       -7.608233   1.000000
   26       -7.586629   1.000000
   27       -7.523447   1.000000
   28       -7.517370   1.000000
   29       -7.466903   1.000000
   30       -7.417994   1.000000
   31       -7.368955   1.000000
   32       -7.307075   1.000000
   33       -7.260686   1.000000
   34       -7.224547   1.000000
   35       -7.172358   1.000000
   36       -7.152541   1.000000
   37       -7.140164   1.000000
   38       -7.114210   1.000000
   39       -7.112965   1.000000
   40       -7.088092   1.000000
   41       -7.065484   1.000000
   42       -7.020054   1.000000
   43       -6.999930   1.000000
   44       -6.987104   1.000000
   45       -6.986685   1.000000
   46       -6.918216   1.000000
   47       -6.905359   1.000000
   48       -6.838010   1.000000
   49       -6.790432   1.000000
   50       -6.696703   1.000000
   51       -6.622251   1.000000
   52       -5.928749   1.000000
   53       -5.389934   1.000000
   54       -4.845989   1.000000
   55       -4.211288   1.000000
   56       -3.126664   0.000000
   57       -2.911656   0.000000
   58       -2.838222   0.000000
   59       -2.758218   0.000000
   60       -2.228748   0.000000
   61       -1.906142   0.000000
   62       -1.119422   0.000000
   63       -0.999599   0.000000
   64       -0.885239   0.000000
   65       -0.823074   0.000000
   66       -0.685394   0.000000
