 vasp.5.4.4.18Apr17-6-g9f103f2a35 (build Jun 19 2019 11:58:18) complex          
  
 executed on             LinuxIFC date 2022.07.17  10:58:18
 running on   32 total cores
 distrk:  each k-point on   32 cores,    1 groups
 distr:  one band on NCORES_PER_BAND=  16 cores,    2 groups


--------------------------------------------------------------------------------------------------------


 INCAR:
 POTCAR:   PAW_PBE Ag 06Sep2000                   

 ----------------------------------------------------------------------------- 
|                                                                             |
|           W    W    AA    RRRRR   N    N  II  N    N   GGGG   !!!           |
|           W    W   A  A   R    R  NN   N  II  NN   N  G    G  !!!           |
|           W    W  A    A  R    R  N N  N  II  N N  N  G       !!!           |
|           W WW W  AAAAAA  RRRRR   N  N N  II  N  N N  G  GGG   !            |
|           WW  WW  A    A  R   R   N   NN  II  N   NN  G    G                |
|           W    W  A    A  R    R  N    N  II  N    N   GGGG   !!!           |
|                                                                             |
|      For optimal performance we recommend to set                            |
|        NCORE= 4 - approx SQRT( number of cores)                             |
|      NCORE specifies how many cores store one orbital (NPAR=cpu/NCORE).     |
|      This setting can  greatly improve the performance of VASP for DFT.     |
|      The default,   NCORE=1            might be grossly inefficient         |
|      on modern multi-core architectures or massively parallel machines.     |
|      Do your own testing !!!!                                               |
|      Unfortunately you need to use the default for GW and RPA calculations. |
|      (for HF NCORE is supported but not extensively tested yet)             |
|                                                                             |
 ----------------------------------------------------------------------------- 

 POTCAR:   PAW_PBE Ag 06Sep2000                   
   VRHFIN =Ag : s1 d10                                                          
   LEXCH  = PE                                                                  
   EATOM  =  1037.4134 eV,   76.2477 Ry                                         
                                                                                
   TITEL  = PAW_PBE Ag 06Sep2000                                                
   LULTRA =        F    use ultrasoft PP ?                                      
   IUNSCR =        1    unscreen: 0-lin 1-nonlin 2-no                           
   RPACOR =    2.000    partial core radius                                     
   POMASS =  107.868; ZVAL   =   11.000    mass and valenz                      
   RCORE  =    2.400    outmost cutoff radius                                   
   RWIGS  =    2.840; RWIGS  =    1.503    wigner-seitz radius (au A)           
   ENMAX  =  249.846; ENMIN  =  187.385 eV                                      
   RCLOC  =    1.962    cutoff for local pot                                    
   LCOR   =        T    correct aug charges                                     
   LPAW   =        T    paw PP                                                  
   EAUG   =  412.496                                                            
   DEXC   =    -.047                                                            
   RMAX   =    2.917    core radius for proj-oper                               
   RAUG   =    1.300    factor for augmentation sphere                          
   RDEP   =    2.416    radius for radial grids                                 
   QCUT   =   -4.285; QGAM   =    8.570    optimization parameters              
                                                                                
   Description                                                                  
     l     E      TYP  RCUT    TYP  RCUT                                        
     2   .000     23  2.400                                                     
     2   .000     23  2.400                                                     
     0   .000     23  2.400                                                     
     0   .000     23  2.400                                                     
     1  -.200     23  2.400                                                     
     1  1.500     23  2.400                                                     
     3   .000      7   .000                                                     
  local pseudopotential read in
  partial core-charges read in
  atomic valenz-charges read in
  non local Contribution for L=           2  read in
    real space projection operators read in
  non local Contribution for L=           2  read in
    real space projection operators read in
  non local Contribution for L=           0  read in
    real space projection operators read in
  non local Contribution for L=           0  read in
    real space projection operators read in
  non local Contribution for L=           1  read in
    real space projection operators read in
  non local Contribution for L=           1  read in
    real space projection operators read in
    PAW grid and wavefunctions read in
 
   number of l-projection  operators is LMAX  =           6
   number of lm-projection operators is LMMAX =          18
 
 Optimization of the real space projectors (new method)

 maximal supplied QI-value         = 15.68
 optimisation between [QCUT,QGAM] = [ 10.20, 20.39] = [ 29.11,116.42] Ry 
 Optimized for a Real-space Cutoff    1.42 Angstroem

   l    n(q)    QCUT    max X(q) W(low)/X(q) W(high)/X(q)  e(spline) 
   2      8    10.195     3.831    0.87E-04    0.50E-04    0.39E-07
   2      8    10.195    20.184    0.33E-03    0.72E-03    0.15E-06
   0      9    10.195    16.770    0.37E-04    0.52E-05    0.77E-08
   0      9    10.195    80.708    0.39E-03    0.16E-03    0.65E-07
   1      8    10.195     6.696    0.51E-04    0.95E-04    0.27E-07
   1      8    10.195     8.973    0.13E-03    0.22E-03    0.14E-06
 PAW_PBE Ag 06Sep2000                   :
 energy of atom  1       EATOM=-1037.4134
 kinetic energy error for atom=    0.0091 (will be added to EATOM!!)
 
 
 POSCAR: 10-c1-10-39.xyz                         
  positions in cartesian coordinates
  No initial velocities read in
 exchange correlation table for  LEXCH =        8
   RHO(1)=    0.500       N(1)  =     2000
   RHO(2)=  100.500       N(2)  =     4000
 


--------------------------------------------------------------------------------------------------------


 ion  position               nearest neighbor table
   1  0.523  0.639  0.569-   8 2.77   4 2.77   3 2.82   5 2.89   9 2.97   6 2.99
   2  0.653  0.505  0.494-  10 2.78   4 2.79   6 2.90
   3  0.510  0.540  0.623-   9 2.79   1 2.82   4 2.83  10 2.84
   4  0.548  0.545  0.513-   6 2.76   1 2.77   2 2.79   3 2.83  10 2.89
   5  0.523  0.705  0.666-   9 2.78   8 2.79   1 2.89
   6  0.634  0.616  0.523-   4 2.76   8 2.77   7 2.81   2 2.90  10 2.96   1 2.99
   7  0.690  0.616  0.624-  10 2.79   6 2.81   8 2.82   9 2.84
   8  0.615  0.697  0.598-   1 2.77   6 2.77   5 2.79   7 2.82   9 2.90
   9  0.584  0.611  0.671-   5 2.78   3 2.79  10 2.84   7 2.84   8 2.90   1 2.97
  10  0.623  0.527  0.603-   2 2.78   7 2.79   3 2.84   9 2.84   4 2.89   6 2.96
 
  LATTYP: Found a simple orthorhombic cell.
 ALAT       =    24.2905183870
 B/A-ratio  =     1.0045492330
 C/A-ratio  =     1.0291998246
  
  Lattice vectors:
  
 A1 = (   0.0000000000,   0.0000000000,  24.2905183870)
 A2 = ( -24.4010216150,   0.0000000000,   0.0000000000)
 A3 = (   0.0000000000, -24.9997972630,   0.0000000000)


Analysis of symmetry for initial positions (statically):
=====================================================================
 Subroutine PRICEL returns:
 Original cell was already a primitive cell.
 

 Routine SETGRP: Setting up the symmetry group for a 
 simple orthorhombic supercell.


 Subroutine GETGRP returns: Found  1 space group operations
 (whereof  1 operations were pure point group operations)
 out of a pool of  8 trial point group operations.


The static configuration has the point symmetry C_1 .


Analysis of symmetry for dynamics (positions and initial velocities):
=====================================================================
 Subroutine PRICEL returns:
 Original cell was already a primitive cell.
 

 Routine SETGRP: Setting up the symmetry group for a 
 simple orthorhombic supercell.


 Subroutine GETGRP returns: Found  1 space group operations
 (whereof  1 operations were pure point group operations)
 out of a pool of  8 trial point group operations.


The dynamic configuration has the point symmetry C_1 .


 Subroutine INISYM returns: Found  1 space group operations
 (whereof  1 operations are pure point group operations),
 and found     1 'primitive' translations

 
 
 KPOINTS: Monkhorst Pack                          

Automatic generation of k-mesh.
Space group operators:
 irot       det(A)        alpha          n_x          n_y          n_z        tau_x        tau_y        tau_z
    1     1.000000     0.000001     1.000000     0.000000     0.000000     0.000000     0.000000     0.000000
 
 Subroutine IBZKPT returns following result:
 ===========================================
 
 Found      1 irreducible k-points:
 
 Following reciprocal coordinates:
            Coordinates               Weight
  0.000000  0.000000  0.000000      1.000000
 
 Following cartesian coordinates:
            Coordinates               Weight
  0.000000  0.000000  0.000000      1.000000
 


--------------------------------------------------------------------------------------------------------




 Dimension of arrays:
   k-points           NKPTS =      1   k-points in BZ     NKDIM =      1   number of bands    NBANDS=     66
   number of dos      NEDOS =    301   number of ions     NIONS =     10
   non local maximal  LDIM  =      6   non local SUM 2l+1 LMDIM =     18
   total plane-waves  NPLWV = ******
   max r-space proj   IRMAX =   1524   max aug-charges    IRDMAX=   6219
   dimension x,y,z NGX =   120 NGY =  126 NGZ =  120
   dimension x,y,z NGXF=   240 NGYF=  252 NGZF=  240
   support grid    NGXF=   240 NGYF=  252 NGZF=  240
   ions per type =              10
   NGX,Y,Z   is equivalent  to a cutoff of   8.18,  8.38,  8.21 a.u.
   NGXF,Y,Z  is equivalent  to a cutoff of  16.35, 16.76, 16.43 a.u.

 SYSTEM =  BLACK                                   
 POSCAR =  10-c1-10-39.xyz                         

 Startparameter for this run:
   NWRITE =      2    write-flag & timer
   PREC   = normal    normal or accurate (medium, high low for compatibility)
   ISTART =      0    job   : 0-new  1-cont  2-samecut
   ICHARG =      2    charge: 1-file 2-atom 10-const
   ISPIN  =      1    spin polarized calculation?
   LNONCOLLINEAR =      F non collinear calculations
   LSORBIT =      F    spin-orbit coupling
   INIWAV =      1    electr: 0-lowe 1-rand  2-diag
   LASPH  =      F    aspherical Exc in radial PAW
   METAGGA=      F    non-selfconsistent MetaGGA calc.

 Electronic Relaxation 1
   ENCUT  =  400.0 eV  29.40 Ry    5.42 a.u.  39.79 40.77 39.61*2*pi/ulx,y,z
   ENINI  =  400.0     initial cutoff
   ENAUG  =  412.5 eV  augmentation charge cutoff
   NELM   =    200;   NELMIN=  2; NELMDL= -5     # of ELM steps 
   EDIFF  = 0.1E-04   stopping-criterion for ELM
   LREAL  =      T    real-space projection
   NLSPLINE    = F    spline interpolate recip. space projectors
   LCOMPAT=      F    compatible to vasp.4.4
   GGA_COMPAT  = T    GGA compatible to vasp.4.4-vasp.4.6
   LMAXPAW     = -100 max onsite density
   LMAXMIX     =    2 max onsite mixed and CHGCAR
   VOSKOWN=      0    Vosko Wilk Nusair interpolation
   ROPT   =   -0.00050
 Ionic relaxation
   EDIFFG = -.1E-01   stopping-criterion for IOM
   NSW    =   1000    number of steps for IOM
   NBLOCK =      1;   KBLOCK =   1000    inner block; outer block 
   IBRION =      2    ionic relax: 0-MD 1-quasi-New 2-CG
   NFREE  =      1    steps in history (QN), initial steepest desc. (CG)
   ISIF   =      2    stress and relaxation
   IWAVPR =     11    prediction:  0-non 1-charg 2-wave 3-comb
   ISYM   =      2    0-nonsym 1-usesym 2-fastsym
   LCORR  =      T    Harris-Foulkes like correction to forces

   POTIM  = 0.5000    time-step for ionic-motion
   TEIN   =    0.0    initial temperature
   TEBEG  =    0.0;   TEEND  =   0.0 temperature during run
   SMASS  =  -3.00    Nose mass-parameter (am)
   estimated Nose-frequenzy (Omega)   =  0.10E-29 period in steps =****** mass=  -0.136E-25a.u.
   SCALEE = 1.0000    scale energy and forces
   NPACO  =    256;   APACO  = 16.0  distance and # of slots for P.C.
   PSTRESS=    0.0 pullay stress

  Mass of Ions in am
   POMASS = 107.87
  Ionic Valenz
   ZVAL   =  11.00
  Atomic Wigner-Seitz radii
   RWIGS  =  -1.00
  virtual crystal weights 
   VCA    =   1.00
   NELECT =     110.0000    total number of electrons
   NUPDOWN=      -1.0000    fix difference up-down

 DOS related values:
   EMIN   =  10.00;   EMAX   =-10.00  energy-range for DOS
   EFERMI =   0.00
   ISMEAR =     0;   SIGMA  =   0.05  broadening in eV -4-tet -1-fermi 0-gaus

 Electronic relaxation 2 (details)
   IALGO  =     68    algorithm
   LDIAG  =      T    sub-space diagonalisation (order eigenvalues)
   LSUBROT=      F    optimize rotation matrix (better conditioning)
   TURBO    =      0    0=normal 1=particle mesh
   IRESTART =      0    0=no restart 2=restart with 2 vectors
   NREBOOT  =      0    no. of reboots
   NMIN     =      0    reboot dimension
   EREF     =   0.00    reference energy to select bands
   IMIX   =      4    mixing-type and parameters
     AMIX     =   0.40;   BMIX     =  1.00
     AMIX_MAG =   1.60;   BMIX_MAG =  1.00
     AMIN     =   0.10
     WC   =   100.;   INIMIX=   1;  MIXPRE=   1;  MAXMIX= -45

 Intra band minimization:
   WEIMIN = 0.0010     energy-eigenvalue tresh-hold
   EBREAK =  0.38E-07  absolut break condition
   DEPER  =   0.30     relativ break condition  

   TIME   =   0.40     timestep for ELM

  volume/ion in A,a.u.               =    1481.77      9999.49
  Fermi-wavevector in a.u.,A,eV,Ry     =   0.319359  0.603500  1.387657  0.101990
  Thomas-Fermi vector in A             =   1.205017
 
 Write flags
   LWAVE        =      F    write WAVECAR
   LDOWNSAMPLE  =      F    k-point downsampling of WAVECAR
   LCHARG       =      F    write CHGCAR
   LVTOT        =      F    write LOCPOT, total local potential
   LVHAR        =      F    write LOCPOT, Hartree potential only
   LELF         =      F    write electronic localiz. function (ELF)
   LORBIT       =      0    0 simple, 1 ext, 2 COOP (PROOUT), +10 PAW based schemes


 Dipole corrections
   LMONO  =      F    monopole corrections only (constant potential shift)
   LDIPOL =      F    correct potential (dipole corrections)
   IDIPOL =      0    1-x, 2-y, 3-z, 4-all directions 
   EPSILON=  1.0000000 bulk dielectric constant

 Exchange correlation treatment:
   GGA     =    PE    GGA type
   LEXCH   =     8    internal setting for exchange type
   VOSKOWN=      0    Vosko Wilk Nusair interpolation
   LHFCALC =     F    Hartree Fock is set to
   LHFONE  =     F    Hartree Fock one center treatment
   AEXX    =    0.0000 exact exchange contribution

 Linear response parameters
   LEPSILON=     F    determine dielectric tensor
   LRPA    =     F    only Hartree local field effects (RPA)
   LNABLA  =     F    use nabla operator in PAW spheres
   LVEL    =     F    velocity operator in full k-point grid
   LINTERFAST=   F  fast interpolation
   KINTER  =     0    interpolate to denser k-point grid
   CSHIFT  =0.1000    complex shift for real part using Kramers Kronig
   OMEGAMAX=  -1.0    maximum frequency
   DEG_THRESHOLD= 0.2000000E-02 threshold for treating states as degnerate
   RTIME   =   -0.100 relaxation time in fs
  (WPLASMAI=    0.000 imaginary part of plasma frequency in eV, 0.658/RTIME)
   DFIELD  = 0.0000000 0.0000000 0.0000000 field for delta impulse in time
 
 Orbital magnetization related:
   ORBITALMAG=     F  switch on orbital magnetization
   LCHIMAG   =     F  perturbation theory with respect to B field
   DQ        =  0.001000  dq finite difference perturbation B field
   LLRAUG    =     F  two centre corrections for induced B field



--------------------------------------------------------------------------------------------------------


 conjugate gradient relaxation of ions
 charge density and potential will be updated during run
 non-spin polarized calculation
 RMM-DIIS sequential band-by-band and
  variant of blocked Davidson during initial phase
 perform sub-space diagonalisation
    before iterative eigenvector-optimisation
 modified Broyden-mixing scheme, WC =      100.0
 initial mixing is a Kerker type mixing with AMIX =  0.4000 and BMIX =      1.0000
 Hartree-type preconditioning will be used
 using additional bands           11
 real space projection scheme for non local part
 use partial core corrections
 calculate Harris-corrections to forces 
   (improved forces if not selfconsistent)
 use gradient corrections 
 use of overlap-Matrix (Vanderbilt PP)
 Gauss-broadening in eV      SIGMA  =   0.05


--------------------------------------------------------------------------------------------------------


  energy-cutoff  :      400.00
  volume of cell :    14817.72
      direct lattice vectors                 reciprocal lattice vectors
    24.401021615  0.000000000  0.000000000     0.040981891  0.000000000  0.000000000
     0.000000000 24.999797263  0.000000000     0.000000000  0.040000324  0.000000000
     0.000000000  0.000000000 24.290518387     0.000000000  0.000000000  0.041168327

  length of vectors
    24.401021615 24.999797263 24.290518387     0.040981891  0.040000324  0.041168327


 
 k-points in units of 2pi/SCALE and weight: Monkhorst Pack                          
   0.00000000  0.00000000  0.00000000       1.000
 
 k-points in reciprocal lattice and weights: Monkhorst Pack                          
   0.00000000  0.00000000  0.00000000       1.000
 
 position of ions in fractional coordinates (direct lattice) 
   0.52295589  0.63858922  0.56894562
   0.65270263  0.50491180  0.49441346
   0.50967532  0.53965138  0.62270214
   0.54765564  0.54498303  0.51290455
   0.52298453  0.70490531  0.66616645
   0.63399268  0.61594416  0.52262954
   0.69003751  0.61559930  0.62390138
   0.61464999  0.69730901  0.59783546
   0.58371683  0.61074425  0.67104693
   0.62343991  0.52733009  0.60262179
 
 position of ions in cartesian coordinates  (Angst):
  12.76065786 15.96460116 13.81998408
  15.92661100 12.62269269 12.00955932
  12.43659860 13.49117515 15.12575766
  13.36335707 13.62446519 12.45871731
  12.76135694 17.62248996 16.18152850
  15.47006911 15.39847913 12.69494244
  16.83762021 15.38985772 15.15488797
  14.99808774 17.43258387 14.52173324
  14.24328699 15.26848250 16.30007770
  15.21257062 13.18314526 14.63799565
 


--------------------------------------------------------------------------------------------------------


 k-point  1 :   0.0000 0.0000 0.0000  plane waves:  269149

 maximum and minimum number of plane-waves per node :     16831    16807

 maximum number of plane-waves:    269149
 maximum index in each direction: 
   IXMAX=   39   IYMAX=   40   IZMAX=   39
   IXMIN=  -39   IYMIN=  -40   IZMIN=  -39


 real space projection operators:
  total allocation   :       2015.58 KBytes
  max/ min on nodes  :        163.69         84.23


 parallel 3D FFT for wavefunctions:
    minimum data exchange during FFTs selected (reduces bandwidth)
 parallel 3D FFT for charge:
    minimum data exchange during FFTs selected (reduces bandwidth)


 total amount of memory used by VASP MPI-rank0    87341. kBytes
=======================================================================

   base      :      30000. kBytes
   nonlr-proj:        443. kBytes
   fftplans  :      19792. kBytes
   grid      :      28207. kBytes
   one-center:         15. kBytes
   wavefun   :       8884. kBytes
 
     INWAV:  cpu time    0.0000: real time    0.0002
 Broyden mixing: mesh for mixing (old mesh)
   NGX = 79   NGY = 81   NGZ = 79
  (NGX  =240   NGY  =252   NGZ  =240)
  gives a total of 505521 points

 initial charge density was supplied:
 charge density of overlapping atoms calculated
 number of electron     110.0000000 magnetization 
 keeping initial charge density in first step


--------------------------------------------------------------------------------------------------------


 Maximum index for non-local projection operator          150
 Maximum index for augmentation-charges          373 (set IRDMAX)


--------------------------------------------------------------------------------------------------------


 First call to EWALD:  gamma=   0.072
 Maximum number of real-space cells 3x 3x 3
 Maximum number of reciprocal cells 3x 3x 3

    FEWALD:  cpu time    0.0017: real time    0.0017


--------------------------------------- Iteration      1(   1)  ---------------------------------------


    POTLOK:  cpu time    0.3613: real time    0.3682
    SETDIJ:  cpu time    0.0024: real time    0.0056
     EDDAV:  cpu time    1.5705: real time    1.7173
       DOS:  cpu time    0.0007: real time    0.0007
    --------------------------------------------
      LOOP:  cpu time    1.9350: real time    2.0919

 eigenvalue-minimisations  :   132
 total energy-change (2. order) : 0.9285354E+03  (-0.1423808E+04)
 number of electron     110.0000000 magnetization 
 augmentation part      110.0000000 magnetization 

 Free energy of the ion-electron system (eV)
  ---------------------------------------------------
  alpha Z        PSCENC =        11.98414808
  Ewald energy   TEWEN  =     12647.88723291
  -Hartree energ DENC   =    -22541.89156142
  -exchange      EXHF   =         0.00000000
  -V(xc)+E(xc)   XCENC  =      -116.46781919
  PAW double counting   =      8706.69194128    -8242.69949865
  entropy T*S    EENTRO =        -0.06010010
  eigenvalues    EBANDS =        89.04780485
  atomic energy  EATOM  =     10374.04328376
  Solvation  Ediel_sol  =         0.00000000
  ---------------------------------------------------
  free energy    TOTEN  =       928.53543152 eV

  energy without entropy =      928.59553163  energy(sigma->0) =      928.56548157


--------------------------------------------------------------------------------------------------------




--------------------------------------- Iteration      1(   2)  ---------------------------------------


     EDDAV:  cpu time    2.5295: real time    2.6894
       DOS:  cpu time    0.0004: real time    0.0004
    --------------------------------------------
      LOOP:  cpu time    2.5298: real time    2.6897

 eigenvalue-minimisations  :   248
 total energy-change (2. order) :-0.3579368E+03  (-0.3358529E+03)
 number of electron     110.0000000 magnetization 
 augmentation part      110.0000000 magnetization 

 Free energy of the ion-electron system (eV)
  ---------------------------------------------------
  alpha Z        PSCENC =        11.98414808
  Ewald energy   TEWEN  =     12647.88723291
  -Hartree energ DENC   =    -22541.89156142
  -exchange      EXHF   =         0.00000000
  -V(xc)+E(xc)   XCENC  =      -116.46781919
  PAW double counting   =      8706.69194128    -8242.69949865
  entropy T*S    EENTRO =        -0.09578399
  eigenvalues    EBANDS =      -268.85329283
  atomic energy  EATOM  =     10374.04328376
  Solvation  Ediel_sol  =         0.00000000
  ---------------------------------------------------
  free energy    TOTEN  =       570.59864995 eV

  energy without entropy =      570.69443394  energy(sigma->0) =      570.64654195


--------------------------------------------------------------------------------------------------------




--------------------------------------- Iteration      1(   3)  ---------------------------------------


     EDDAV:  cpu time    2.3394: real time    2.3457
       DOS:  cpu time    0.0003: real time    0.0003
    --------------------------------------------
      LOOP:  cpu time    2.3397: real time    2.3460

 eigenvalue-minimisations  :   232
 total energy-change (2. order) :-0.4290672E+03  (-0.4011494E+03)
 number of electron     110.0000000 magnetization 
 augmentation part      110.0000000 magnetization 

 Free energy of the ion-electron system (eV)
  ---------------------------------------------------
  alpha Z        PSCENC =        11.98414808
  Ewald energy   TEWEN  =     12647.88723291
  -Hartree energ DENC   =    -22541.89156142
  -exchange      EXHF   =         0.00000000
  -V(xc)+E(xc)   XCENC  =      -116.46781919
  PAW double counting   =      8706.69194128    -8242.69949865
  entropy T*S    EENTRO =        -0.00244253
  eigenvalues    EBANDS =      -698.01385774
  atomic energy  EATOM  =     10374.04328376
  Solvation  Ediel_sol  =         0.00000000
  ---------------------------------------------------
  free energy    TOTEN  =       141.53142651 eV

  energy without entropy =      141.53386904  energy(sigma->0) =      141.53264777


--------------------------------------------------------------------------------------------------------




--------------------------------------- Iteration      1(   4)  ---------------------------------------


     EDDAV:  cpu time    1.8435: real time    1.9847
       DOS:  cpu time    0.0003: real time    0.0003
    --------------------------------------------
      LOOP:  cpu time    1.8438: real time    1.9850

 eigenvalue-minimisations  :   176
 total energy-change (2. order) :-0.1414199E+03  (-0.1295908E+03)
 number of electron     110.0000000 magnetization 
 augmentation part      110.0000000 magnetization 

 Free energy of the ion-electron system (eV)
  ---------------------------------------------------
  alpha Z        PSCENC =        11.98414808
  Ewald energy   TEWEN  =     12647.88723291
  -Hartree energ DENC   =    -22541.89156142
  -exchange      EXHF   =         0.00000000
  -V(xc)+E(xc)   XCENC  =      -116.46781919
  PAW double counting   =      8706.69194128    -8242.69949865
  entropy T*S    EENTRO =        -0.00001080
  eigenvalues    EBANDS =      -839.43621059
  atomic energy  EATOM  =     10374.04328376
  Solvation  Ediel_sol  =         0.00000000
  ---------------------------------------------------
  free energy    TOTEN  =         0.11150539 eV

  energy without entropy =        0.11151619  energy(sigma->0) =        0.11151079


--------------------------------------------------------------------------------------------------------




--------------------------------------- Iteration      1(   5)  ---------------------------------------


     EDDAV:  cpu time    1.6302: real time    1.6488
       DOS:  cpu time    0.0005: real time    0.0105
    CHARGE:  cpu time    0.1234: real time    0.1279
    MIXING:  cpu time    0.0132: real time    0.0172
    --------------------------------------------
      LOOP:  cpu time    1.7674: real time    1.8045

 eigenvalue-minimisations  :   150
 total energy-change (2. order) :-0.1987387E+02  (-0.1887347E+02)
 number of electron     109.9999989 magnetization 
 augmentation part       52.4542466 magnetization 

 Broyden mixing:
  rms(total) = 0.50526E+00    rms(broyden)= 0.50522E+00
  rms(prec ) = 0.56799E+00
  weight for this iteration     100.00

 Free energy of the ion-electron system (eV)
  ---------------------------------------------------
  alpha Z        PSCENC =        11.98414808
  Ewald energy   TEWEN  =     12647.88723291
  -Hartree energ DENC   =    -22541.89156142
  -exchange      EXHF   =         0.00000000
  -V(xc)+E(xc)   XCENC  =      -116.46781919
  PAW double counting   =      8706.69194128    -8242.69949865
  entropy T*S    EENTRO =        -0.00000000
  eigenvalues    EBANDS =      -859.31009430
  atomic energy  EATOM  =     10374.04328376
  Solvation  Ediel_sol  =         0.00000000
  ---------------------------------------------------
  free energy    TOTEN  =       -19.76236752 eV

  energy without entropy =      -19.76236752  energy(sigma->0) =      -19.76236752


--------------------------------------------------------------------------------------------------------




--------------------------------------- Iteration      1(   6)  ---------------------------------------


    POTLOK:  cpu time    0.3428: real time    0.3463
    SETDIJ:  cpu time    0.0016: real time    0.0016
    EDDIAG:  cpu time    0.2832: real time    0.2894
  RMM-DIIS:  cpu time    1.0509: real time    1.1424
    ORTHCH:  cpu time    0.0198: real time    0.0282
       DOS:  cpu time    0.0005: real time    0.0005
    CHARGE:  cpu time    0.1181: real time    0.1246
    MIXING:  cpu time    0.0123: real time    0.0191
    --------------------------------------------
      LOOP:  cpu time    1.8292: real time    1.9522

 eigenvalue-minimisations  :   132
 total energy-change (2. order) : 0.5868133E+00  (-0.9623992E+00)
 number of electron     109.9999989 magnetization 
 augmentation part       53.0101534 magnetization 

 Broyden mixing:
  rms(total) = 0.16691E+00    rms(broyden)= 0.16690E+00
  rms(prec ) = 0.19477E+00
  weight for this iteration     100.00

 eigenvalues of (default mixing * dielectric matrix)
  average eigenvalue GAMMA=   1.3257
  1.3257

 Free energy of the ion-electron system (eV)
  ---------------------------------------------------
  alpha Z        PSCENC =        11.98414808
  Ewald energy   TEWEN  =     12647.88723291
  -Hartree energ DENC   =    -22520.32387337
  -exchange      EXHF   =         0.00000000
  -V(xc)+E(xc)   XCENC  =      -118.09942391
  PAW double counting   =      8664.91235453    -8206.12599539
  entropy T*S    EENTRO =        -0.00000000
  eigenvalues    EBANDS =      -873.45328079
  atomic energy  EATOM  =     10374.04328376
  Solvation  Ediel_sol  =         0.00000000
  ---------------------------------------------------
  free energy    TOTEN  =       -19.17555418 eV

  energy without entropy =      -19.17555418  energy(sigma->0) =      -19.17555418


--------------------------------------------------------------------------------------------------------




--------------------------------------- Iteration      1(   7)  ---------------------------------------


    POTLOK:  cpu time    0.3411: real time    0.3428
    SETDIJ:  cpu time    0.0016: real time    0.0016
    EDDIAG:  cpu time    0.2843: real time    0.2871
  RMM-DIIS:  cpu time    1.2670: real time    1.3206
    ORTHCH:  cpu time    0.0249: real time    0.0250
       DOS:  cpu time    0.0005: real time    0.0005
    CHARGE:  cpu time    0.1206: real time    0.1206
    MIXING:  cpu time    0.0122: real time    0.0122
    --------------------------------------------
      LOOP:  cpu time    2.0521: real time    2.1104

 eigenvalue-minimisations  :   137
 total energy-change (2. order) : 0.8850105E-01  (-0.1243723E+00)
 number of electron     109.9999989 magnetization 
 augmentation part       53.1634717 magnetization 

 Broyden mixing:
  rms(total) = 0.67102E-01    rms(broyden)= 0.67095E-01
  rms(prec ) = 0.75985E-01
  weight for this iteration     100.00

 eigenvalues of (default mixing * dielectric matrix)
  average eigenvalue GAMMA=   1.6395
  1.3098  1.9692

 Free energy of the ion-electron system (eV)
  ---------------------------------------------------
  alpha Z        PSCENC =        11.98414808
  Ewald energy   TEWEN  =     12647.88723291
  -Hartree energ DENC   =    -22525.75821851
  -exchange      EXHF   =         0.00000000
  -V(xc)+E(xc)   XCENC  =      -118.51305503
  PAW double counting   =      8681.16864966    -8226.73346251
  entropy T*S    EENTRO =        -0.00000000
  eigenvalues    EBANDS =      -863.16563150
  atomic energy  EATOM  =     10374.04328376
  Solvation  Ediel_sol  =         0.00000000
  ---------------------------------------------------
  free energy    TOTEN  =       -19.08705313 eV

  energy without entropy =      -19.08705313  energy(sigma->0) =      -19.08705313


--------------------------------------------------------------------------------------------------------




--------------------------------------- Iteration      1(   8)  ---------------------------------------


    POTLOK:  cpu time    0.3430: real time    0.3441
    SETDIJ:  cpu time    0.0016: real time    0.0016
    EDDIAG:  cpu time    0.2840: real time    0.2859
  RMM-DIIS:  cpu time    1.0432: real time    1.0589
    ORTHCH:  cpu time    0.0244: real time    0.0259
       DOS:  cpu time    0.0005: real time    0.0005
    CHARGE:  cpu time    0.1192: real time    0.1197
    MIXING:  cpu time    0.0125: real time    0.0125
    --------------------------------------------
      LOOP:  cpu time    1.8283: real time    1.8490

 eigenvalue-minimisations  :   134
 total energy-change (2. order) : 0.1838246E-01  (-0.7009541E-02)
 number of electron     109.9999989 magnetization 
 augmentation part       53.1218237 magnetization 

 Broyden mixing:
  rms(total) = 0.26630E-01    rms(broyden)= 0.26629E-01
  rms(prec ) = 0.32559E-01
  weight for this iteration     100.00

 eigenvalues of (default mixing * dielectric matrix)
  average eigenvalue GAMMA=   1.6988
  1.2974  1.2974  2.5015

 Free energy of the ion-electron system (eV)
  ---------------------------------------------------
  alpha Z        PSCENC =        11.98414808
  Ewald energy   TEWEN  =     12647.88723291
  -Hartree energ DENC   =    -22536.72982027
  -exchange      EXHF   =         0.00000000
  -V(xc)+E(xc)   XCENC  =      -118.38775021
  PAW double counting   =      8705.51405010    -8253.67858651
  entropy T*S    EENTRO =        -0.00000000
  eigenvalues    EBANDS =      -849.70122852
  atomic energy  EATOM  =     10374.04328376
  Solvation  Ediel_sol  =         0.00000000
  ---------------------------------------------------
  free energy    TOTEN  =       -19.06867067 eV

  energy without entropy =      -19.06867067  energy(sigma->0) =      -19.06867067


--------------------------------------------------------------------------------------------------------




--------------------------------------- Iteration      1(   9)  ---------------------------------------


    POTLOK:  cpu time    0.3446: real time    0.3462
    SETDIJ:  cpu time    0.0016: real time    0.0016
    EDDIAG:  cpu time    0.3007: real time    0.4161
  RMM-DIIS:  cpu time    1.0544: real time    1.0645
    ORTHCH:  cpu time    0.0246: real time    0.0251
       DOS:  cpu time    0.0005: real time    0.0005
    CHARGE:  cpu time    0.1242: real time    0.1252
    MIXING:  cpu time    0.0135: real time    0.0135
    --------------------------------------------
      LOOP:  cpu time    1.8639: real time    1.9926

 eigenvalue-minimisations  :   134
 total energy-change (2. order) : 0.3776765E-02  (-0.9264138E-03)
 number of electron     109.9999989 magnetization 
 augmentation part       53.1336648 magnetization 

 Broyden mixing:
  rms(total) = 0.99922E-02    rms(broyden)= 0.99916E-02
  rms(prec ) = 0.14983E-01
  weight for this iteration     100.00

 eigenvalues of (default mixing * dielectric matrix)
  average eigenvalue GAMMA=   1.6257
  2.4942  1.7664  0.9760  1.2664

 Free energy of the ion-electron system (eV)
  ---------------------------------------------------
  alpha Z        PSCENC =        11.98414808
  Ewald energy   TEWEN  =     12647.88723291
  -Hartree energ DENC   =    -22541.37552925
  -exchange      EXHF   =         0.00000000
  -V(xc)+E(xc)   XCENC  =      -118.37997057
  PAW double counting   =      8707.92327369    -8256.94427311
  entropy T*S    EENTRO =        -0.00000000
  eigenvalues    EBANDS =      -844.20305942
  atomic energy  EATOM  =     10374.04328376
  Solvation  Ediel_sol  =         0.00000000
  ---------------------------------------------------
  free energy    TOTEN  =       -19.06489390 eV

  energy without entropy =      -19.06489390  energy(sigma->0) =      -19.06489390


--------------------------------------------------------------------------------------------------------




--------------------------------------- Iteration      1(  10)  ---------------------------------------


    POTLOK:  cpu time    0.3470: real time    0.3500
    SETDIJ:  cpu time    0.0016: real time    0.0016
    EDDIAG:  cpu time    0.3556: real time    0.4909
  RMM-DIIS:  cpu time    1.1019: real time    1.1125
    ORTHCH:  cpu time    0.0247: real time    0.0247
       DOS:  cpu time    0.0004: real time    0.0004
    CHARGE:  cpu time    0.1271: real time    0.1287
    MIXING:  cpu time    0.0141: real time    0.0141
    --------------------------------------------
      LOOP:  cpu time    1.9724: real time    2.1229

 eigenvalue-minimisations  :   132
 total energy-change (2. order) :-0.4422800E-03  (-0.1391611E-03)
 number of electron     109.9999989 magnetization 
 augmentation part       53.1359675 magnetization 

 Broyden mixing:
  rms(total) = 0.58050E-02    rms(broyden)= 0.58049E-02
  rms(prec ) = 0.10252E-01
  weight for this iteration     100.00

 eigenvalues of (default mixing * dielectric matrix)
  average eigenvalue GAMMA=   1.8481
  3.0428  2.6192  0.9568  1.3108  1.3108

 Free energy of the ion-electron system (eV)
  ---------------------------------------------------
  alpha Z        PSCENC =        11.98414808
  Ewald energy   TEWEN  =     12647.88723291
  -Hartree energ DENC   =    -22544.56944780
  -exchange      EXHF   =         0.00000000
  -V(xc)+E(xc)   XCENC  =      -118.34284518
  PAW double counting   =      8705.49535075    -8254.39697253
  entropy T*S    EENTRO =        -0.00000000
  eigenvalues    EBANDS =      -841.16608617
  atomic energy  EATOM  =     10374.04328376
  Solvation  Ediel_sol  =         0.00000000
  ---------------------------------------------------
  free energy    TOTEN  =       -19.06533618 eV

  energy without entropy =      -19.06533618  energy(sigma->0) =      -19.06533618


--------------------------------------------------------------------------------------------------------




--------------------------------------- Iteration      1(  11)  ---------------------------------------


    POTLOK:  cpu time    0.3473: real time    0.3503
    SETDIJ:  cpu time    0.0020: real time    0.0020
    EDDIAG:  cpu time    0.2830: real time    0.2881
  RMM-DIIS:  cpu time    1.1841: real time    1.1996
    ORTHCH:  cpu time    0.0227: real time    0.0227
       DOS:  cpu time    0.0006: real time    0.0005
    CHARGE:  cpu time    0.1266: real time    0.1271
    MIXING:  cpu time    0.0128: real time    0.0138
    --------------------------------------------
      LOOP:  cpu time    1.9790: real time    2.0041

 eigenvalue-minimisations  :   132
 total energy-change (2. order) :-0.1638942E-02  (-0.1948217E-03)
 number of electron     109.9999989 magnetization 
 augmentation part       53.1278030 magnetization 

 Broyden mixing:
  rms(total) = 0.40160E-02    rms(broyden)= 0.40160E-02
  rms(prec ) = 0.59039E-02
  weight for this iteration     100.00

 eigenvalues of (default mixing * dielectric matrix)
  average eigenvalue GAMMA=   1.8967
  3.7443  2.6531  1.6190  0.9489  1.2076  1.2076

 Free energy of the ion-electron system (eV)
  ---------------------------------------------------
  alpha Z        PSCENC =        11.98414808
  Ewald energy   TEWEN  =     12647.88723291
  -Hartree energ DENC   =    -22550.87158194
  -exchange      EXHF   =         0.00000000
  -V(xc)+E(xc)   XCENC  =      -118.27119420
  PAW double counting   =      8703.19135100    -8251.95659814
  entropy T*S    EENTRO =        -0.00000000
  eigenvalues    EBANDS =      -835.07361660
  atomic energy  EATOM  =     10374.04328376
  Solvation  Ediel_sol  =         0.00000000
  ---------------------------------------------------
  free energy    TOTEN  =       -19.06697512 eV

  energy without entropy =      -19.06697512  energy(sigma->0) =      -19.06697512


--------------------------------------------------------------------------------------------------------




--------------------------------------- Iteration      1(  12)  ---------------------------------------


    POTLOK:  cpu time    0.3435: real time    0.3476
    SETDIJ:  cpu time    0.0016: real time    0.0016
    EDDIAG:  cpu time    0.2850: real time    0.2877
  RMM-DIIS:  cpu time    1.0441: real time    1.0651
    ORTHCH:  cpu time    0.1432: real time    0.2615
       DOS:  cpu time    0.0003: real time    0.0003
    CHARGE:  cpu time    0.1222: real time    0.1245
    MIXING:  cpu time    0.0141: real time    0.0141
    --------------------------------------------
      LOOP:  cpu time    1.9538: real time    2.1023

 eigenvalue-minimisations  :   132
 total energy-change (2. order) :-0.1998263E-02  (-0.9379197E-04)
 number of electron     109.9999989 magnetization 
 augmentation part       53.1350208 magnetization 

 Broyden mixing:
  rms(total) = 0.25413E-02    rms(broyden)= 0.25411E-02
  rms(prec ) = 0.36416E-02
  weight for this iteration     100.00

 eigenvalues of (default mixing * dielectric matrix)
  average eigenvalue GAMMA=   2.0541
  4.9905  2.6407  2.2185  1.3275  1.2283  0.9866  0.9866

 Free energy of the ion-electron system (eV)
  ---------------------------------------------------
  alpha Z        PSCENC =        11.98414808
  Ewald energy   TEWEN  =     12647.88723291
  -Hartree energ DENC   =    -22552.86805052
  -exchange      EXHF   =         0.00000000
  -V(xc)+E(xc)   XCENC  =      -118.27348239
  PAW double counting   =      8701.26096996    -8250.00347085
  entropy T*S    EENTRO =        -0.00000000
  eigenvalues    EBANDS =      -833.09960435
  atomic energy  EATOM  =     10374.04328376
  Solvation  Ediel_sol  =         0.00000000
  ---------------------------------------------------
  free energy    TOTEN  =       -19.06897339 eV

  energy without entropy =      -19.06897339  energy(sigma->0) =      -19.06897339


--------------------------------------------------------------------------------------------------------




--------------------------------------- Iteration      1(  13)  ---------------------------------------


    POTLOK:  cpu time    0.3463: real time    0.3491
    SETDIJ:  cpu time    0.0016: real time    0.0016
    EDDIAG:  cpu time    0.2849: real time    0.2875
  RMM-DIIS:  cpu time    1.0483: real time    1.0560
    ORTHCH:  cpu time    0.0235: real time    0.0235
       DOS:  cpu time    0.0005: real time    0.0005
    CHARGE:  cpu time    0.1242: real time    0.1275
    MIXING:  cpu time    0.0145: real time    0.0145
    --------------------------------------------
      LOOP:  cpu time    1.8438: real time    1.8602

 eigenvalue-minimisations  :   132
 total energy-change (2. order) :-0.2204921E-02  (-0.3491869E-04)
 number of electron     109.9999989 magnetization 
 augmentation part       53.1316004 magnetization 

 Broyden mixing:
  rms(total) = 0.10641E-02    rms(broyden)= 0.10641E-02
  rms(prec ) = 0.17404E-02
  weight for this iteration     100.00

 eigenvalues of (default mixing * dielectric matrix)
  average eigenvalue GAMMA=   2.1295
  5.4622  3.1003  2.2167  1.8542  1.1992  1.1992  1.0021  1.0021

 Free energy of the ion-electron system (eV)
  ---------------------------------------------------
  alpha Z        PSCENC =        11.98414808
  Ewald energy   TEWEN  =     12647.88723291
  -Hartree energ DENC   =    -22554.48673003
  -exchange      EXHF   =         0.00000000
  -V(xc)+E(xc)   XCENC  =      -118.26014171
  PAW double counting   =      8701.28339832    -8250.05513308
  entropy T*S    EENTRO =        -0.00000000
  eigenvalues    EBANDS =      -831.46723656
  atomic energy  EATOM  =     10374.04328376
  Solvation  Ediel_sol  =         0.00000000
  ---------------------------------------------------
  free energy    TOTEN  =       -19.07117831 eV

  energy without entropy =      -19.07117831  energy(sigma->0) =      -19.07117831


--------------------------------------------------------------------------------------------------------




--------------------------------------- Iteration      1(  14)  ---------------------------------------


    POTLOK:  cpu time    0.3448: real time    0.3505
    SETDIJ:  cpu time    0.0016: real time    0.0016
    EDDIAG:  cpu time    0.2848: real time    0.2881
  RMM-DIIS:  cpu time    0.8436: real time    0.8573
    ORTHCH:  cpu time    0.0229: real time    0.0235
       DOS:  cpu time    0.0005: real time    0.0005
    CHARGE:  cpu time    0.1259: real time    0.1265
    MIXING:  cpu time    0.0152: real time    0.0152
    --------------------------------------------
      LOOP:  cpu time    1.6392: real time    1.6631

 eigenvalue-minimisations  :    82
 total energy-change (2. order) :-0.1521680E-02  (-0.9113405E-05)
 number of electron     109.9999989 magnetization 
 augmentation part       53.1312067 magnetization 

 Broyden mixing:
  rms(total) = 0.70281E-03    rms(broyden)= 0.70276E-03
  rms(prec ) = 0.10496E-02
  weight for this iteration     100.00

 eigenvalues of (default mixing * dielectric matrix)
  average eigenvalue GAMMA=   2.1449
  6.1732  3.2270  2.3932  1.6286  1.6286  1.1917  1.1917  0.9350  0.9350

 Free energy of the ion-electron system (eV)
  ---------------------------------------------------
  alpha Z        PSCENC =        11.98414808
  Ewald energy   TEWEN  =     12647.88723291
  -Hartree energ DENC   =    -22554.99593306
  -exchange      EXHF   =         0.00000000
  -V(xc)+E(xc)   XCENC  =      -118.25991046
  PAW double counting   =      8701.31877108    -8250.09443495
  entropy T*S    EENTRO =        -0.00000000
  eigenvalues    EBANDS =      -830.95585735
  atomic energy  EATOM  =     10374.04328376
  Solvation  Ediel_sol  =         0.00000000
  ---------------------------------------------------
  free energy    TOTEN  =       -19.07269999 eV

  energy without entropy =      -19.07269999  energy(sigma->0) =      -19.07269999


--------------------------------------------------------------------------------------------------------




--------------------------------------- Iteration      1(  15)  ---------------------------------------


    POTLOK:  cpu time    0.3462: real time    0.3506
    SETDIJ:  cpu time    0.0016: real time    0.0016
    EDDIAG:  cpu time    0.2823: real time    0.2912
  RMM-DIIS:  cpu time    0.7354: real time    0.7666
    ORTHCH:  cpu time    0.1338: real time    0.1907
       DOS:  cpu time    0.0003: real time    0.0003
    CHARGE:  cpu time    0.1232: real time    0.1237
    MIXING:  cpu time    0.0159: real time    0.0159
    --------------------------------------------
      LOOP:  cpu time    1.6387: real time    1.7407

 eigenvalue-minimisations  :    81
 total energy-change (2. order) :-0.7079881E-03  (-0.3798856E-05)
 number of electron     109.9999989 magnetization 
 augmentation part       53.1320678 magnetization 

 Broyden mixing:
  rms(total) = 0.51830E-03    rms(broyden)= 0.51826E-03
  rms(prec ) = 0.72199E-03
  weight for this iteration     100.00

 eigenvalues of (default mixing * dielectric matrix)
  average eigenvalue GAMMA=   2.2102
  7.1142  3.7525  2.5987  2.0505  1.4740  1.1908  1.0132  1.0132  0.9473  0.9473

 Free energy of the ion-electron system (eV)
  ---------------------------------------------------
  alpha Z        PSCENC =        11.98414808
  Ewald energy   TEWEN  =     12647.88723291
  -Hartree energ DENC   =    -22555.23829316
  -exchange      EXHF   =         0.00000000
  -V(xc)+E(xc)   XCENC  =      -118.26193233
  PAW double counting   =      8701.35887057    -8250.13986987
  entropy T*S    EENTRO =        -0.00000000
  eigenvalues    EBANDS =      -830.70684794
  atomic energy  EATOM  =     10374.04328376
  Solvation  Ediel_sol  =         0.00000000
  ---------------------------------------------------
  free energy    TOTEN  =       -19.07340798 eV

  energy without entropy =      -19.07340798  energy(sigma->0) =      -19.07340798


--------------------------------------------------------------------------------------------------------




--------------------------------------- Iteration      1(  16)  ---------------------------------------


    POTLOK:  cpu time    0.3494: real time    0.3511
    SETDIJ:  cpu time    0.0023: real time    0.0023
    EDDIAG:  cpu time    0.2839: real time    0.2861
  RMM-DIIS:  cpu time    0.6858: real time    0.6941
    ORTHCH:  cpu time    0.0237: real time    0.0242
       DOS:  cpu time    0.0005: real time    0.0005
    CHARGE:  cpu time    0.1260: real time    0.1557
    MIXING:  cpu time    0.0166: real time    0.0166
    --------------------------------------------
      LOOP:  cpu time    1.4882: real time    1.5306

 eigenvalue-minimisations  :    81
 total energy-change (2. order) :-0.4998559E-03  (-0.2738925E-05)
 number of electron     109.9999989 magnetization 
 augmentation part       53.1312886 magnetization 

 Broyden mixing:
  rms(total) = 0.27733E-03    rms(broyden)= 0.27729E-03
  rms(prec ) = 0.40155E-03
  weight for this iteration     100.00

 eigenvalues of (default mixing * dielectric matrix)
  average eigenvalue GAMMA=   2.3414
  7.7591  4.3488  2.6811  2.6811  1.6495  1.6495  1.1319  1.1319  0.9757  0.8736
  0.8736

 Free energy of the ion-electron system (eV)
  ---------------------------------------------------
  alpha Z        PSCENC =        11.98414808
  Ewald energy   TEWEN  =     12647.88723291
  -Hartree energ DENC   =    -22555.35250381
  -exchange      EXHF   =         0.00000000
  -V(xc)+E(xc)   XCENC  =      -118.26146782
  PAW double counting   =      8701.51930854    -8250.30305328
  entropy T*S    EENTRO =        -0.00000000
  eigenvalues    EBANDS =      -830.59085623
  atomic energy  EATOM  =     10374.04328376
  Solvation  Ediel_sol  =         0.00000000
  ---------------------------------------------------
  free energy    TOTEN  =       -19.07390783 eV

  energy without entropy =      -19.07390783  energy(sigma->0) =      -19.07390783


--------------------------------------------------------------------------------------------------------




--------------------------------------- Iteration      1(  17)  ---------------------------------------


    POTLOK:  cpu time    0.3479: real time    0.3505
    SETDIJ:  cpu time    0.0015: real time    0.0020
    EDDIAG:  cpu time    0.2846: real time    0.2868
  RMM-DIIS:  cpu time    0.7051: real time    0.7901
    ORTHCH:  cpu time    0.0236: real time    0.0236
       DOS:  cpu time    0.0005: real time    0.0005
    CHARGE:  cpu time    0.1268: real time    0.1273
    MIXING:  cpu time    0.0170: real time    0.0171
    --------------------------------------------
      LOOP:  cpu time    1.5070: real time    1.5979

 eigenvalue-minimisations  :    81
 total energy-change (2. order) :-0.4613839E-03  (-0.3394614E-05)
 number of electron     109.9999989 magnetization 
 augmentation part       53.1316976 magnetization 

 Broyden mixing:
  rms(total) = 0.16439E-03    rms(broyden)= 0.16437E-03
  rms(prec ) = 0.21379E-03
  weight for this iteration     100.00

 eigenvalues of (default mixing * dielectric matrix)
  average eigenvalue GAMMA=   2.3330
  8.0808  4.9871  2.9776  2.5370  1.8813  1.4802  1.2768  1.0889  1.0889  0.9781
  0.8099  0.8099

 Free energy of the ion-electron system (eV)
  ---------------------------------------------------
  alpha Z        PSCENC =        11.98414808
  Ewald energy   TEWEN  =     12647.88723291
  -Hartree energ DENC   =    -22555.36353427
  -exchange      EXHF   =         0.00000000
  -V(xc)+E(xc)   XCENC  =      -118.26203602
  PAW double counting   =      8701.45213791    -8250.22448948
  entropy T*S    EENTRO =        -0.00000000
  eigenvalues    EBANDS =      -830.59111210
  atomic energy  EATOM  =     10374.04328376
  Solvation  Ediel_sol  =         0.00000000
  ---------------------------------------------------
  free energy    TOTEN  =       -19.07436922 eV

  energy without entropy =      -19.07436922  energy(sigma->0) =      -19.07436922


--------------------------------------------------------------------------------------------------------




--------------------------------------- Iteration      1(  18)  ---------------------------------------


    POTLOK:  cpu time    0.3497: real time    0.3523
    SETDIJ:  cpu time    0.0024: real time    0.0024
    EDDIAG:  cpu time    0.2840: real time    0.2861
  RMM-DIIS:  cpu time    0.6339: real time    0.6695
    ORTHCH:  cpu time    0.0236: real time    0.0248
       DOS:  cpu time    0.0005: real time    0.0005
    CHARGE:  cpu time    0.1543: real time    0.1578
    MIXING:  cpu time    0.0179: real time    0.0179
    --------------------------------------------
      LOOP:  cpu time    1.4662: real time    1.5112

 eigenvalue-minimisations  :    69
 total energy-change (2. order) :-0.8941191E-04  (-0.4440639E-06)
 number of electron     109.9999989 magnetization 
 augmentation part       53.1316067 magnetization 

 Broyden mixing:
  rms(total) = 0.80319E-04    rms(broyden)= 0.80308E-04
  rms(prec ) = 0.12184E-03
  weight for this iteration     100.00

 eigenvalues of (default mixing * dielectric matrix)
  average eigenvalue GAMMA=   2.3947
  8.3338  5.4855  3.3107  2.6555  2.0895  1.6630  1.6630  1.0811  1.0811  1.0683
  1.0494  0.8843  0.7665

 Free energy of the ion-electron system (eV)
  ---------------------------------------------------
  alpha Z        PSCENC =        11.98414808
  Ewald energy   TEWEN  =     12647.88723291
  -Hartree energ DENC   =    -22555.37415601
  -exchange      EXHF   =         0.00000000
  -V(xc)+E(xc)   XCENC  =      -118.26235205
  PAW double counting   =      8701.44338040    -8250.21806793
  entropy T*S    EENTRO =        -0.00000000
  eigenvalues    EBANDS =      -830.57792779
  atomic energy  EATOM  =     10374.04328376
  Solvation  Ediel_sol  =         0.00000000
  ---------------------------------------------------
  free energy    TOTEN  =       -19.07445863 eV

  energy without entropy =      -19.07445863  energy(sigma->0) =      -19.07445863


--------------------------------------------------------------------------------------------------------




--------------------------------------- Iteration      1(  19)  ---------------------------------------


    POTLOK:  cpu time    0.4348: real time    0.5620
    SETDIJ:  cpu time    0.0018: real time    0.0018
    EDDIAG:  cpu time    0.2951: real time    0.2959
  RMM-DIIS:  cpu time    0.5887: real time    0.5954
    ORTHCH:  cpu time    0.0237: real time    0.0237
       DOS:  cpu time    0.0005: real time    0.0004
    CHARGE:  cpu time    0.1273: real time    0.1279
    MIXING:  cpu time    0.0189: real time    0.0189
    --------------------------------------------
      LOOP:  cpu time    1.4908: real time    1.6262

 eigenvalue-minimisations  :    57
 total energy-change (2. order) :-0.1008129E-03  (-0.6086780E-06)
 number of electron     109.9999989 magnetization 
 augmentation part       53.1316043 magnetization 

 Broyden mixing:
  rms(total) = 0.59898E-04    rms(broyden)= 0.59894E-04
  rms(prec ) = 0.80991E-04
  weight for this iteration     100.00

 eigenvalues of (default mixing * dielectric matrix)
  average eigenvalue GAMMA=   2.3761
  8.3541  5.9464  3.4697  2.8081  2.4354  1.8709  1.4942  1.1567  1.1567  0.9887
  0.9887  0.9283  0.9283  0.7398

 Free energy of the ion-electron system (eV)
  ---------------------------------------------------
  alpha Z        PSCENC =        11.98414808
  Ewald energy   TEWEN  =     12647.88723291
  -Hartree energ DENC   =    -22555.37306344
  -exchange      EXHF   =         0.00000000
  -V(xc)+E(xc)   XCENC  =      -118.26265447
  PAW double counting   =      8701.41205007    -8250.18735419
  entropy T*S    EENTRO =        -0.00000000
  eigenvalues    EBANDS =      -830.57820217
  atomic energy  EATOM  =     10374.04328376
  Solvation  Ediel_sol  =         0.00000000
  ---------------------------------------------------
  free energy    TOTEN  =       -19.07455944 eV

  energy without entropy =      -19.07455944  energy(sigma->0) =      -19.07455944


--------------------------------------------------------------------------------------------------------




--------------------------------------- Iteration      1(  20)  ---------------------------------------


    POTLOK:  cpu time    0.3498: real time    0.3520
    SETDIJ:  cpu time    0.0026: real time    0.0026
    EDDIAG:  cpu time    0.2856: real time    0.2865
  RMM-DIIS:  cpu time    0.5027: real time    0.5069
    ORTHCH:  cpu time    0.0235: real time    0.0235
       DOS:  cpu time    0.0005: real time    0.0005
    CHARGE:  cpu time    0.1277: real time    0.1278
    MIXING:  cpu time    0.0208: real time    0.0208
    --------------------------------------------
      LOOP:  cpu time    1.3131: real time    1.3207

 eigenvalue-minimisations  :    37
 total energy-change (2. order) :-0.2467346E-04  (-0.8918301E-07)
 number of electron     109.9999989 magnetization 
 augmentation part       53.1316351 magnetization 

 Broyden mixing:
  rms(total) = 0.32211E-04    rms(broyden)= 0.32210E-04
  rms(prec ) = 0.46664E-04
  weight for this iteration     100.00

 eigenvalues of (default mixing * dielectric matrix)
  average eigenvalue GAMMA=   2.3866
  8.4538  6.2883  3.8297  2.7553  2.7553  1.9435  1.5081  1.5081  1.0839  1.0839
  1.1217  0.9914  0.8766  0.8766  0.7226

 Free energy of the ion-electron system (eV)
  ---------------------------------------------------
  alpha Z        PSCENC =        11.98414808
  Ewald energy   TEWEN  =     12647.88723291
  -Hartree energ DENC   =    -22555.35860433
  -exchange      EXHF   =         0.00000000
  -V(xc)+E(xc)   XCENC  =      -118.26289763
  PAW double counting   =      8701.40430874    -8250.18031371
  entropy T*S    EENTRO =        -0.00000000
  eigenvalues    EBANDS =      -830.59174193
  atomic energy  EATOM  =     10374.04328376
  Solvation  Ediel_sol  =         0.00000000
  ---------------------------------------------------
  free energy    TOTEN  =       -19.07458412 eV

  energy without entropy =      -19.07458412  energy(sigma->0) =      -19.07458412


--------------------------------------------------------------------------------------------------------




--------------------------------------- Iteration      1(  21)  ---------------------------------------


    POTLOK:  cpu time    0.4834: real time    0.4922
    SETDIJ:  cpu time    0.0019: real time    0.0019
    EDDIAG:  cpu time    0.2873: real time    0.2885
  RMM-DIIS:  cpu time    0.5025: real time    0.5061
    ORTHCH:  cpu time    0.0223: real time    0.0301
       DOS:  cpu time    0.0003: real time    0.0003
    CHARGE:  cpu time    0.1232: real time    0.1242
    MIXING:  cpu time    0.0210: real time    0.0210
    --------------------------------------------
      LOOP:  cpu time    1.4419: real time    1.4643

 eigenvalue-minimisations  :    37
 total energy-change (2. order) :-0.1560533E-04  (-0.5274063E-07)
 number of electron     109.9999989 magnetization 
 augmentation part       53.1316350 magnetization 

 Broyden mixing:
  rms(total) = 0.31125E-04    rms(broyden)= 0.31123E-04
  rms(prec ) = 0.37931E-04
  weight for this iteration     100.00

 eigenvalues of (default mixing * dielectric matrix)
  average eigenvalue GAMMA=   2.3941
  8.3347  6.7642  4.0575  3.0826  2.6622  2.1606  1.9124  1.4296  1.1090  1.1090
  0.9764  0.9764  1.0659  1.0138  0.9017  0.7493

 Free energy of the ion-electron system (eV)
  ---------------------------------------------------
  alpha Z        PSCENC =        11.98414808
  Ewald energy   TEWEN  =     12647.88723291
  -Hartree energ DENC   =    -22555.35430084
  -exchange      EXHF   =         0.00000000
  -V(xc)+E(xc)   XCENC  =      -118.26288627
  PAW double counting   =      8701.41348842    -8250.18981072
  entropy T*S    EENTRO =        -0.00000000
  eigenvalues    EBANDS =      -830.59575506
  atomic energy  EATOM  =     10374.04328376
  Solvation  Ediel_sol  =         0.00000000
  ---------------------------------------------------
  free energy    TOTEN  =       -19.07459972 eV

  energy without entropy =      -19.07459972  energy(sigma->0) =      -19.07459972


--------------------------------------------------------------------------------------------------------




--------------------------------------- Iteration      1(  22)  ---------------------------------------


    POTLOK:  cpu time    0.3385: real time    0.3622
    SETDIJ:  cpu time    0.0079: real time    0.0079
    EDDIAG:  cpu time    0.3186: real time    0.3208
  RMM-DIIS:  cpu time    0.5300: real time    0.7270
    ORTHCH:  cpu time    0.0233: real time    0.0233
       DOS:  cpu time    0.0004: real time    0.0004
    --------------------------------------------
      LOOP:  cpu time    1.2186: real time    1.4414

 eigenvalue-minimisations  :    21
 total energy-change (2. order) :-0.7035698E-05  (-0.3001041E-08)
 number of electron     109.9999989 magnetization 
 augmentation part       53.1316350 magnetization 

 Free energy of the ion-electron system (eV)
  ---------------------------------------------------
  alpha Z        PSCENC =        11.98414808
  Ewald energy   TEWEN  =     12647.88723291
  -Hartree energ DENC   =    -22555.35818079
  -exchange      EXHF   =         0.00000000
  -V(xc)+E(xc)   XCENC  =      -118.26280727
  PAW double counting   =      8701.42481945    -8250.20082590
  entropy T*S    EENTRO =        -0.00000000
  eigenvalues    EBANDS =      -830.59227700
  atomic energy  EATOM  =     10374.04328376
  Solvation  Ediel_sol  =         0.00000000
  ---------------------------------------------------
  free energy    TOTEN  =       -19.07460676 eV

  energy without entropy =      -19.07460676  energy(sigma->0) =      -19.07460676


--------------------------------------------------------------------------------------------------------




 average (electrostatic) potential at core
  the test charge radii are     1.1249
  (the norm of the test charge is              1.0000)
       1 -48.1087       2 -47.7918       3 -48.1678       4 -48.2200       5 -47.7933
       6 -48.1127       7 -48.1720       8 -48.2176       9 -48.1442      10 -48.1503
 
 
 
 E-fermi :  -3.9837     XC(G=0):  -0.3355     alpha+bet : -0.0983


 k-point     1 :       0.0000    0.0000    0.0000
  band No.  band energies     occupation 
      1      -9.1199      2.00000
      2      -8.9727      2.00000
      3      -8.9574      2.00000
      4      -8.9096      2.00000
      5      -8.7897      2.00000
      6      -8.7567      2.00000
      7      -8.6925      2.00000
      8      -8.6649      2.00000
      9      -8.6201      2.00000
     10      -8.6068      2.00000
     11      -8.5937      2.00000
     12      -8.5700      2.00000
     13      -8.4137      2.00000
     14      -8.3133      2.00000
     15      -8.2955      2.00000
     16      -8.2323      2.00000
     17      -8.2246      2.00000
     18      -8.1504      2.00000
     19      -8.0775      2.00000
     20      -8.0084      2.00000
     21      -7.9286      2.00000
     22      -7.8335      2.00000
     23      -7.7276      2.00000
     24      -7.7254      2.00000
     25      -7.5964      2.00000
     26      -7.5703      2.00000
     27      -7.5094      2.00000
     28      -7.4999      2.00000
     29      -7.4402      2.00000
     30      -7.3951      2.00000
     31      -7.3561      2.00000
     32      -7.2914      2.00000
     33      -7.2499      2.00000
     34      -7.2180      2.00000
     35      -7.1589      2.00000
     36      -7.1429      2.00000
     37      -7.1302      2.00000
     38      -7.1136      2.00000
     39      -7.1092      2.00000
     40      -7.0992      2.00000
     41      -7.0591      2.00000
     42      -7.0149      2.00000
     43      -7.0026      2.00000
     44      -7.0000      2.00000
     45      -6.9854      2.00000
     46      -6.9250      2.00000
     47      -6.9092      2.00000
     48      -6.8499      2.00000
     49      -6.7956      2.00000
     50      -6.6954      2.00000
     51      -6.6311      2.00000
     52      -5.9040      2.00000
     53      -5.3844      2.00000
     54      -4.8611      2.00000
     55      -4.2124      2.00000
     56      -3.1185      0.00000
     57      -2.9291      0.00000
     58      -2.8403      0.00000
     59      -2.7918      0.00000
     60      -2.2319      0.00000
     61      -1.9222      0.00000
     62      -1.1156      0.00000
     63      -1.0240      0.00000
     64      -0.8764      0.00000
     65      -0.8145      0.00000
     66      -0.6216      0.00000


--------------------------------------------------------------------------------------------------------


 soft charge-density along one line, spin component           1
         0         1         2         3         4         5         6         7         8         9
 total charge-density along one line
 
 pseudopotential strength for first ion, spin component:           1
-15.719   0.002   0.008  -0.003   0.000   0.810  -0.001  -0.002
  0.002 -15.717  -0.001  -0.004   0.003  -0.001   0.810   0.000
  0.008  -0.001 -15.707  -0.000  -0.003  -0.002   0.000   0.808
 -0.003  -0.004  -0.000 -15.708  -0.001   0.001   0.001  -0.000
  0.000   0.003  -0.003  -0.001 -15.719  -0.000  -0.001   0.001
  0.810  -0.001  -0.002   0.001  -0.000   0.328   0.000   0.000
 -0.001   0.810   0.000   0.001  -0.001   0.000   0.328  -0.000
 -0.002   0.000   0.808  -0.000   0.001   0.000  -0.000   0.329
  0.001   0.001  -0.000   0.808  -0.000  -0.000  -0.000   0.000
 -0.000  -0.001   0.001  -0.000   0.810   0.000   0.000  -0.000
  0.004   0.004  -0.002  -0.001  -0.003  -0.000  -0.000   0.000
 -0.000  -0.000   0.000   0.000   0.000   0.000   0.000  -0.000
 -0.022  -0.006  -0.008   0.000  -0.013   0.004   0.002   0.002
  0.000   0.013  -0.007  -0.023   0.001   0.000  -0.002   0.002
  0.014   0.000   0.013  -0.005  -0.023  -0.003   0.000  -0.003
  0.014   0.004   0.005  -0.000   0.008  -0.003  -0.001  -0.001
 -0.000  -0.008   0.004   0.014  -0.001   0.000   0.001  -0.001
 -0.009  -0.000  -0.008   0.003   0.014   0.002   0.000   0.001
 total augmentation occupancy for first ion, spin component:           1
  1.968   0.007   0.010  -0.005   0.003  -0.021  -0.007  -0.011   0.007  -0.001  -0.032  -0.001  -0.008   0.004   0.006  -0.012
  0.007   1.957  -0.002  -0.002   0.009  -0.007  -0.011   0.003   0.001  -0.010  -0.038  -0.015  -0.011  -0.005  -0.000  -0.003
  0.010  -0.002   1.971   0.001  -0.005  -0.011   0.002  -0.033   0.000   0.004   0.005  -0.006  -0.013  -0.009   0.005  -0.004
 -0.005  -0.002   0.001   1.973   0.002   0.007   0.001   0.000  -0.032   0.002   0.014   0.005  -0.001  -0.015   0.004   0.000
  0.003   0.009  -0.005   0.002   1.971  -0.001  -0.010   0.004   0.002  -0.024   0.030   0.010  -0.004   0.005  -0.009  -0.008
 -0.021  -0.007  -0.011   0.007  -0.001   0.041   0.002  -0.005   0.009   0.006   0.048  -0.005   0.023   0.006   0.004  -0.001
 -0.007  -0.011   0.002   0.001  -0.010   0.002   0.059   0.004  -0.005  -0.001   0.062  -0.017   0.029  -0.008   0.009  -0.001
 -0.011   0.003  -0.033   0.000   0.004  -0.005   0.004   0.039   0.008  -0.002  -0.019   0.003   0.015   0.029  -0.015  -0.001
  0.007   0.001   0.000  -0.032   0.002   0.009  -0.005   0.008   0.037   0.004  -0.015  -0.009   0.011   0.030   0.006  -0.001
 -0.001  -0.010   0.004   0.002  -0.024   0.006  -0.001  -0.002   0.004   0.055  -0.048   0.013   0.030  -0.008   0.027  -0.002
 -0.032  -0.038   0.005   0.014   0.030   0.048   0.062  -0.019  -0.015  -0.048   1.031  -0.269  -0.051   0.012   0.071   0.005
 -0.001  -0.015  -0.006   0.005   0.010  -0.005  -0.017   0.003  -0.009   0.013  -0.269   0.115   0.018  -0.030  -0.037  -0.002
 -0.008  -0.011  -0.013  -0.001  -0.004   0.023   0.029   0.015   0.011   0.030  -0.051   0.018   0.082   0.024   0.009  -0.004
  0.004  -0.005  -0.009  -0.015   0.005   0.006  -0.008   0.029   0.030  -0.008   0.012  -0.030   0.024   0.071  -0.007  -0.001
  0.006  -0.000   0.005   0.004  -0.009   0.004   0.009  -0.015   0.006   0.027   0.071  -0.037   0.009  -0.007   0.042  -0.000
 -0.012  -0.003  -0.004   0.000  -0.008  -0.001  -0.001  -0.001  -0.001  -0.002   0.005  -0.002  -0.004  -0.001  -0.000   0.000
  0.000   0.008  -0.003  -0.012   0.001  -0.001   0.000  -0.001  -0.002   0.000  -0.004   0.002  -0.001  -0.003  -0.000   0.000
  0.007   0.000   0.007  -0.001  -0.013  -0.000  -0.001   0.001  -0.000  -0.001  -0.009   0.004  -0.000  -0.000  -0.003  -0.000


------------------------ aborting loop because EDIFF is reached ----------------------------------------


    CHARGE:  cpu time    0.1267: real time    0.1267
    FORLOC:  cpu time    0.0209: real time    0.0209
    FORNL :  cpu time    0.4005: real time    0.4093
    STRESS:  cpu time    1.2184: real time    1.2359
    FORCOR:  cpu time    0.3484: real time    0.3621
    FORHAR:  cpu time    0.1042: real time    0.1090
    MIXING:  cpu time    0.0214: real time    0.0224
    OFIELD:  cpu time    0.0002: real time    0.0016

  FORCE on cell =-STRESS in cart. coord.  units (eV):
  Direction    XX          YY          ZZ          XY          YZ          ZX
  --------------------------------------------------------------------------------------
  Alpha Z    11.98415    11.98415    11.98415
  Ewald    4157.27355  4731.87974  3758.72980  -471.04202  1881.02758  -840.94574
  Hartree  7435.72128  7967.27520  7152.36199  -426.33457  1632.91941  -725.86975
  E(xc)    -579.54253  -579.50522  -579.91687    -0.18298     0.70513    -0.38239
  Local  -12119.62958-13227.74269-11442.96808   899.16773 -3510.53076  1565.86514
  n-local  -686.13028  -685.45637  -685.51331    -0.67715     0.55664    -0.43082
  augment   412.22347   412.61235   413.55261    -0.27195    -1.13772     0.42585
  Kinetic  1366.73212  1367.66687  1370.41857    -0.63241    -3.43620     1.33382
  Fock        0.00000     0.00000     0.00000     0.00000     0.00000     0.00000
  -------------------------------------------------------------------------------------
  Total      -1.36782    -1.28597    -1.35113     0.02665     0.10407    -0.00388
  in kB      -0.14790    -0.13905    -0.14609     0.00288     0.01125    -0.00042
  external pressure =       -0.14 kB  Pullay stress =        0.00 kB


 VOLUME and BASIS-vectors are now :
 -----------------------------------------------------------------------------
  energy-cutoff  :      400.00
  volume of cell :    14817.72
      direct lattice vectors                 reciprocal lattice vectors
    24.401021615  0.000000000  0.000000000     0.040981891  0.000000000  0.000000000
     0.000000000 24.999797263  0.000000000     0.000000000  0.040000324  0.000000000
     0.000000000  0.000000000 24.290518387     0.000000000  0.000000000  0.041168327

  length of vectors
    24.401021615 24.999797263 24.290518387     0.040981891  0.040000324  0.041168327


 FORCES acting on ions
    electron-ion (+dipol)            ewald-force                    non-local-force                 convergence-correction
 -----------------------------------------------------------------------------------------------
   0.689E+03 -.373E+03 0.337E+03   -.686E+03 0.371E+03 -.337E+03   -.239E+01 0.168E+01 0.186E+00   -.638E-03 0.121E-03 -.161E-03
   -.418E+03 0.545E+03 0.531E+03   0.415E+03 -.542E+03 -.528E+03   0.318E+01 -.250E+01 -.302E+01   0.126E-03 -.146E-03 -.193E-03
   0.688E+03 0.531E+03 -.338E+03   -.684E+03 -.528E+03 0.335E+03   -.413E+01 -.280E+01 0.213E+01   -.753E-03 -.467E-03 0.102E-03
   0.488E+03 0.386E+03 0.656E+03   -.486E+03 -.383E+03 -.653E+03   -.227E+01 -.261E+01 -.275E+01   -.589E-03 -.362E-03 -.359E-03
   0.442E+03 -.594E+03 -.455E+03   -.438E+03 0.591E+03 0.452E+03   -.339E+01 0.290E+01 0.236E+01   -.157E-03 0.191E-03 0.942E-04
   -.406E+03 -.303E+03 0.687E+03   0.405E+03 0.304E+03 -.685E+03   0.182E+01 -.303E+00 -.232E+01   0.499E-03 0.273E-03 -.373E-03
   -.871E+03 -.977E+02 -.319E+03   0.865E+03 0.973E+02 0.318E+03   0.517E+01 0.328E+00 0.162E+01   0.780E-03 0.303E-03 0.174E-03
   -.291E+03 -.855E+03 0.527E+02   0.289E+03 0.851E+03 -.532E+02   0.167E+01 0.406E+01 0.580E+00   0.442E-03 0.518E-03 0.615E-05
   0.357E+00 0.360E+02 -.850E+03   -.761E+00 -.363E+02 0.848E+03   0.409E+00 0.395E+00 0.187E+01   -.113E-04 0.385E-04 0.438E-03
   -.322E+03 0.725E+03 -.304E+03   0.321E+03 -.723E+03 0.304E+03   0.226E+00 -.184E+01 0.396E+00   0.180E-03 -.402E-03 0.125E-03
 -----------------------------------------------------------------------------------------------
   -.275E+00 0.704E+00 -.107E+01   -.114E-12 0.000E+00 0.114E-12   0.291E+00 -.686E+00 0.106E+01   -.122E-03 0.681E-04 -.146E-03
 
 
 POSITION                                       TOTAL-FORCE (eV/Angst)
 -----------------------------------------------------------------------------------
     12.76066     15.96460     13.81998         0.102164     -0.024114      0.100125
     15.92661     12.62269     12.00956        -0.054543      0.052434      0.038150
     12.43660     13.49118     15.12576         0.065232      0.047736     -0.037979
     13.36336     13.62447     12.45872         0.100289      0.006320      0.065590
     12.76136     17.62249     16.18153         0.046828     -0.051024     -0.043584
     15.47007     15.39848     12.69494        -0.046537     -0.099589      0.076974
     16.83762     15.38986     15.15489        -0.075538     -0.002635     -0.020253
     14.99809     17.43258     14.52173        -0.079986     -0.080162      0.055053
     14.24329     15.26848     16.30008         0.003046      0.060444     -0.145969
     15.21257     13.18315     14.63800        -0.060956      0.090591     -0.088106
 -----------------------------------------------------------------------------------
    total drift:                                0.015236      0.018325     -0.008200


--------------------------------------------------------------------------------------------------------



  FREE ENERGIE OF THE ION-ELECTRON SYSTEM (eV)
  ---------------------------------------------------
  free  energy   TOTEN  =       -19.07460676 eV

  energy  without entropy=      -19.07460676  energy(sigma->0) =      -19.07460676
 


--------------------------------------------------------------------------------------------------------


    POTLOK:  cpu time    0.4782: real time    0.4887


--------------------------------------------------------------------------------------------------------




--------------------------------------------------------------------------------------------------------


    WAVPRE:  cpu time    0.0694: real time    0.0787
    FEWALD:  cpu time    0.0005: real time    0.0009

 real space projection operators:
  total allocation   :       2016.00 KBytes
  max/ min on nodes  :        163.12         84.38

    ORTHCH:  cpu time    0.1583: real time    0.1599
     LOOP+:  cpu time   41.8992: real time   43.8373


--------------------------------------- Iteration      2(   1)  ---------------------------------------


    POTLOK:  cpu time    0.3406: real time    0.3476
    SETDIJ:  cpu time    0.0017: real time    0.0062
     EDDAV:  cpu time    1.4275: real time    1.4924
       DOS:  cpu time    0.0006: real time    0.0048
    CHARGE:  cpu time    0.2312: real time    0.3009
    MIXING:  cpu time    0.0092: real time    0.0128
    --------------------------------------------
      LOOP:  cpu time    2.0109: real time    2.1648

 eigenvalue-minimisations  :   134
 total energy-change (2. order) :-0.4618545E-02  (-0.2627431E+00)
 number of electron     109.9999973 magnetization 
 augmentation part       53.1210364 magnetization 

 Broyden mixing:
  rms(total) = 0.51174E-02    rms(broyden)= 0.51106E-02
  rms(prec ) = 0.55094E-02
  weight for this iteration     100.00

 Free energy of the ion-electron system (eV)
  ---------------------------------------------------
  alpha Z        PSCENC =        11.98414808
  Ewald energy   TEWEN  =     12693.18803549
  -Hartree energ DENC   =    -22600.31554677
  -exchange      EXHF   =         0.00000000
  -V(xc)+E(xc)   XCENC  =      -118.17050226
  PAW double counting   =      8701.42671818    -8250.20251084
  entropy T*S    EENTRO =        -0.00000000
  eigenvalues    EBANDS =      -831.03284390
  atomic energy  EATOM  =     10374.04328376
  Solvation  Ediel_sol  =         0.00000000
  ---------------------------------------------------
  free energy    TOTEN  =       -19.07921827 eV

  energy without entropy =      -19.07921827  energy(sigma->0) =      -19.07921827


--------------------------------------------------------------------------------------------------------




--------------------------------------- Iteration      2(   2)  ---------------------------------------


    POTLOK:  cpu time    0.3425: real time    0.3586
    SETDIJ:  cpu time    0.0016: real time    0.0016
    EDDIAG:  cpu time    0.2842: real time    0.2870
  RMM-DIIS:  cpu time    1.0389: real time    1.0573
    ORTHCH:  cpu time    0.0209: real time    0.0262
       DOS:  cpu time    0.0005: real time    0.0005
    CHARGE:  cpu time    0.1253: real time    0.1259
    MIXING:  cpu time    0.0119: real time    0.0119
    --------------------------------------------
      LOOP:  cpu time    1.8257: real time    1.8691

 eigenvalue-minimisations  :   132
 total energy-change (2. order) :-0.1088552E-02  (-0.1182884E-02)
 number of electron     109.9999973 magnetization 
 augmentation part       53.1239875 magnetization 

 Broyden mixing:
  rms(total) = 0.34834E-02    rms(broyden)= 0.34813E-02
  rms(prec ) = 0.37246E-02
  weight for this iteration     100.00

 eigenvalues of (default mixing * dielectric matrix)
  average eigenvalue GAMMA=   0.6484
  0.6484

 Free energy of the ion-electron system (eV)
  ---------------------------------------------------
  alpha Z        PSCENC =        11.98414808
  Ewald energy   TEWEN  =     12693.18803549
  -Hartree energ DENC   =    -22600.04191787
  -exchange      EXHF   =         0.00000000
  -V(xc)+E(xc)   XCENC  =      -118.18437654
  PAW double counting   =      8701.87041661    -8250.71412277
  entropy T*S    EENTRO =        -0.00000000
  eigenvalues    EBANDS =      -831.22577357
  atomic energy  EATOM  =     10374.04328376
  Solvation  Ediel_sol  =         0.00000000
  ---------------------------------------------------
  free energy    TOTEN  =       -19.08030682 eV

  energy without entropy =      -19.08030682  energy(sigma->0) =      -19.08030682


--------------------------------------------------------------------------------------------------------




--------------------------------------- Iteration      2(   3)  ---------------------------------------


    POTLOK:  cpu time    0.3457: real time    0.3522
    SETDIJ:  cpu time    0.0017: real time    0.0046
    EDDIAG:  cpu time    0.3588: real time    0.4335
  RMM-DIIS:  cpu time    1.0381: real time    1.0600
    ORTHCH:  cpu time    0.0210: real time    0.0261
       DOS:  cpu time    0.0005: real time    0.0005
    CHARGE:  cpu time    0.1253: real time    0.1259
    MIXING:  cpu time    0.0122: real time    0.0122
    --------------------------------------------
      LOOP:  cpu time    1.9031: real time    2.0149

 eigenvalue-minimisations  :   132
 total energy-change (2. order) : 0.1268299E-05  (-0.2590148E-04)
 number of electron     109.9999973 magnetization 
 augmentation part       53.1245643 magnetization 

 Broyden mixing:
  rms(total) = 0.31003E-02    rms(broyden)= 0.30999E-02
  rms(prec ) = 0.32808E-02
  weight for this iteration     100.00

 eigenvalues of (default mixing * dielectric matrix)
  average eigenvalue GAMMA=   1.4008
  1.4008  1.4008

 Free energy of the ion-electron system (eV)
  ---------------------------------------------------
  alpha Z        PSCENC =        11.98414808
  Ewald energy   TEWEN  =     12693.18803549
[...]

 real space projection operators:
  total allocation   :       2014.73 KBytes
  max/ min on nodes  :        163.55         84.66

    ORTHCH:  cpu time    0.1538: real time    0.1558
     LOOP+:  cpu time    5.1396: real time    5.4927


--------------------------------------- Iteration     24(   1)  ---------------------------------------


    POTLOK:  cpu time    0.3492: real time    0.3608
    SETDIJ:  cpu time    0.0016: real time    0.0016
     EDDAV:  cpu time    1.4398: real time    1.5607
       DOS:  cpu time    0.0004: real time    0.0004
    CHARGE:  cpu time    0.1201: real time    0.1215
    MIXING:  cpu time    0.1010: real time    0.1582
    --------------------------------------------
      LOOP:  cpu time    2.0122: real time    2.2034

 eigenvalue-minimisations  :   132
 total energy-change (2. order) :-0.2155923E-04  (-0.1387792E-01)
 number of electron     109.9999996 magnetization 
 augmentation part       53.1151736 magnetization 

 Broyden mixing:
  rms(total) = 0.98208E-03    rms(broyden)= 0.98011E-03
  rms(prec ) = 0.10477E-02
  weight for this iteration     100.00

 Free energy of the ion-electron system (eV)
  ---------------------------------------------------
  alpha Z        PSCENC =        11.98414808
  Ewald energy   TEWEN  =     12764.04052414
  -Hartree energ DENC   =    -22668.98676630
  -exchange      EXHF   =         0.00000000
  -V(xc)+E(xc)   XCENC  =      -118.07479514
  PAW double counting   =      8706.49843016    -8255.71891240
  entropy T*S    EENTRO =        -0.00000000
  eigenvalues    EBANDS =      -832.87166145
  atomic energy  EATOM  =     10374.04328376
  Solvation  Ediel_sol  =         0.00000000
  ---------------------------------------------------
  free energy    TOTEN  =       -19.08574916 eV

  energy without entropy =      -19.08574916  energy(sigma->0) =      -19.08574916


--------------------------------------------------------------------------------------------------------




--------------------------------------- Iteration     24(   2)  ---------------------------------------


    POTLOK:  cpu time    0.3796: real time    0.4233
    SETDIJ:  cpu time    0.0016: real time    0.0016
    EDDIAG:  cpu time    0.2839: real time    0.2896
  RMM-DIIS:  cpu time    1.0776: real time    1.0900
    ORTHCH:  cpu time    0.0245: real time    0.0255
       DOS:  cpu time    0.0005: real time    0.0005
    CHARGE:  cpu time    0.1205: real time    0.1214
    MIXING:  cpu time    0.0118: real time    0.0118
    --------------------------------------------
      LOOP:  cpu time    1.9000: real time    1.9639

 eigenvalue-minimisations  :   132
 total energy-change (2. order) :-0.5734190E-04  (-0.6011179E-04)
 number of electron     109.9999996 magnetization 
 augmentation part       53.1153323 magnetization 

 Broyden mixing:
  rms(total) = 0.80659E-03    rms(broyden)= 0.80613E-03
  rms(prec ) = 0.86001E-03
  weight for this iteration     100.00

 eigenvalues of (default mixing * dielectric matrix)
  average eigenvalue GAMMA=   0.5721
  0.5721

 Free energy of the ion-electron system (eV)
  ---------------------------------------------------
  alpha Z        PSCENC =        11.98414808
  Ewald energy   TEWEN  =     12764.04052414
  -Hartree energ DENC   =    -22668.97110845
  -exchange      EXHF   =         0.00000000
  -V(xc)+E(xc)   XCENC  =      -118.07530485
  PAW double counting   =      8706.51532703    -8255.73841673
  entropy T*S    EENTRO =        -0.00000000
  eigenvalues    EBANDS =      -832.88425949
  atomic energy  EATOM  =     10374.04328376
  Solvation  Ediel_sol  =         0.00000000
  ---------------------------------------------------
  free energy    TOTEN  =       -19.08580650 eV

  energy without entropy =      -19.08580650  energy(sigma->0) =      -19.08580650


--------------------------------------------------------------------------------------------------------




--------------------------------------- Iteration     24(   3)  ---------------------------------------


    POTLOK:  cpu time    0.3520: real time    0.3561
    SETDIJ:  cpu time    0.0016: real time    0.0016
    EDDIAG:  cpu time    0.2826: real time    0.2947
  RMM-DIIS:  cpu time    0.5838: real time    1.0643
    ORTHCH:  cpu time    0.0247: real time    0.0248
       DOS:  cpu time    0.0003: real time    0.0003
    --------------------------------------------
      LOOP:  cpu time    1.2450: real time    1.7416

 eigenvalue-minimisations  :    69
 total energy-change (2. order) : 0.4383892E-06  (-0.1079482E-05)
 number of electron     109.9999996 magnetization 
 augmentation part       53.1153323 magnetization 

 Free energy of the ion-electron system (eV)
  ---------------------------------------------------
  alpha Z        PSCENC =        11.98414808
  Ewald energy   TEWEN  =     12764.04052414
  -Hartree energ DENC   =    -22668.96782135
  -exchange      EXHF   =         0.00000000
  -V(xc)+E(xc)   XCENC  =      -118.07533278
  PAW double counting   =      8706.53052857    -8255.75456255
  entropy T*S    EENTRO =        -0.00000000
  eigenvalues    EBANDS =      -832.88657393
  atomic energy  EATOM  =     10374.04328376
  Solvation  Ediel_sol  =         0.00000000
  ---------------------------------------------------
  free energy    TOTEN  =       -19.08580606 eV

  energy without entropy =      -19.08580606  energy(sigma->0) =      -19.08580606


--------------------------------------------------------------------------------------------------------




 average (electrostatic) potential at core
  the test charge radii are     1.1249
  (the norm of the test charge is              1.0000)
       1 -48.1298       2 -47.8040       3 -48.1813       4 -48.2348       5 -47.8047
       6 -48.1288       7 -48.1834       8 -48.2354       9 -48.1742      10 -48.1735
 
 
 
 E-fermi :  -3.9601     XC(G=0):  -0.3244     alpha+bet : -0.0983


 k-point     1 :       0.0000    0.0000    0.0000
  band No.  band energies     occupation 
      1      -9.2020      2.00000
      2      -9.0511      2.00000
      3      -9.0435      2.00000
      4      -8.9795      2.00000
      5      -8.8260      2.00000
      6      -8.8058      2.00000
      7      -8.7389      2.00000
      8      -8.7141      2.00000
      9      -8.6659      2.00000
     10      -8.6587      2.00000
     11      -8.6475      2.00000
     12      -8.6208      2.00000
     13      -8.4364      2.00000
     14      -8.3527      2.00000
     15      -8.3122      2.00000
     16      -8.2524      2.00000
     17      -8.2495      2.00000
     18      -8.1707      2.00000
     19      -8.1198      2.00000
     20      -8.0264      2.00000
     21      -7.9641      2.00000
     22      -7.8393      2.00000
     23      -7.7567      2.00000
     24      -7.7409      2.00000
     25      -7.6082      2.00000
     26      -7.5866      2.00000
     27      -7.5234      2.00000
     28      -7.5174      2.00000
     29      -7.4669      2.00000
     30      -7.4180      2.00000
     31      -7.3690      2.00000
     32      -7.3071      2.00000
     33      -7.2607      2.00000
     34      -7.2245      2.00000
     35      -7.1724      2.00000
     36      -7.1525      2.00000
     37      -7.1402      2.00000
     38      -7.1142      2.00000
     39      -7.1130      2.00000
     40      -7.0881      2.00000
     41      -7.0655      2.00000
     42      -7.0201      2.00000
     43      -6.9999      2.00000
     44      -6.9871      2.00000
     45      -6.9867      2.00000
     46      -6.9182      2.00000
     47      -6.9054      2.00000
     48      -6.8380      2.00000
     49      -6.7904      2.00000
     50      -6.6967      2.00000
     51      -6.6223      2.00000
     52      -5.9287      2.00000
     53      -5.3899      2.00000
     54      -4.8460      2.00000
     55      -4.2113      2.00000
     56      -3.1267      0.00000
     57      -2.9117      0.00000
     58      -2.8382      0.00000
     59      -2.7582      0.00000
     60      -2.2287      0.00000
     61      -1.9061      0.00000
     62      -1.1194      0.00000
     63      -0.9996      0.00000
     64      -0.8852      0.00000
     65      -0.8231      0.00000
     66      -0.6854      0.00000


--------------------------------------------------------------------------------------------------------


 soft charge-density along one line, spin component           1
         0         1         2         3         4         5         6         7         8         9
 total charge-density along one line
 
 pseudopotential strength for first ion, spin component:           1
-15.730   0.002   0.009  -0.003   0.000   0.813  -0.000  -0.002
  0.002 -15.728  -0.000  -0.004   0.003  -0.000   0.812   0.000
  0.009  -0.000 -15.717  -0.001  -0.003  -0.002   0.000   0.811
 -0.003  -0.004  -0.001 -15.719  -0.001   0.001   0.001   0.000
  0.000   0.003  -0.003  -0.001 -15.729  -0.000  -0.001   0.001
  0.813  -0.000  -0.002   0.001  -0.000   0.328   0.000   0.000
 -0.000   0.812   0.000   0.001  -0.001   0.000   0.328  -0.000
 -0.002   0.000   0.811   0.000   0.001   0.000  -0.000   0.328
  0.001   0.001   0.000   0.811   0.000  -0.000  -0.000  -0.000
 -0.000  -0.001   0.001   0.000   0.812   0.000   0.000  -0.000
  0.004   0.003  -0.001  -0.001  -0.003  -0.000  -0.000   0.000
 -0.000  -0.000   0.000  -0.000   0.000   0.000   0.000  -0.000
 -0.022  -0.006  -0.008   0.000  -0.013   0.005   0.002   0.002
  0.000   0.012  -0.006  -0.023   0.001   0.000  -0.002   0.002
  0.013   0.000   0.013  -0.004  -0.023  -0.002   0.000  -0.003
  0.014   0.004   0.005  -0.000   0.008  -0.003  -0.001  -0.001
 -0.000  -0.008   0.004   0.014  -0.001   0.000   0.001  -0.001
 -0.009  -0.000  -0.008   0.003   0.014   0.002   0.000   0.002
 total augmentation occupancy for first ion, spin component:           1
  1.968   0.007   0.010  -0.005   0.003  -0.021  -0.007  -0.012   0.007  -0.002  -0.033  -0.001  -0.008   0.004   0.006  -0.011
  0.007   1.957  -0.001  -0.002   0.009  -0.007  -0.011   0.002   0.001  -0.009  -0.038  -0.015  -0.011  -0.005  -0.000  -0.002
  0.010  -0.001   1.971   0.000  -0.006  -0.012   0.002  -0.032   0.001   0.004   0.004  -0.006  -0.013  -0.008   0.005  -0.004
 -0.005  -0.002   0.000   1.972   0.002   0.007   0.001   0.001  -0.030   0.002   0.014   0.005  -0.001  -0.015   0.005   0.000
  0.003   0.009  -0.006   0.002   1.971  -0.002  -0.009   0.004   0.002  -0.024   0.030   0.010  -0.004   0.005  -0.009  -0.008
 -0.021  -0.007  -0.012   0.007  -0.002   0.044   0.003  -0.006   0.009   0.006   0.050  -0.006   0.024   0.006   0.004  -0.001
 -0.007  -0.011   0.002   0.001  -0.009   0.003   0.062   0.004  -0.005  -0.000   0.062  -0.017   0.031  -0.009   0.009  -0.001
 -0.012   0.002  -0.032   0.001   0.004  -0.006   0.004   0.042   0.009  -0.003  -0.018   0.003   0.015   0.030  -0.015  -0.001
  0.007   0.001   0.001  -0.030   0.002   0.009  -0.005   0.009   0.041   0.005  -0.013  -0.011   0.011   0.032   0.007  -0.001
 -0.002  -0.009   0.004   0.002  -0.024   0.006  -0.000  -0.003   0.005   0.057  -0.047   0.012   0.030  -0.009   0.029  -0.002
 -0.033  -0.038   0.004   0.014   0.030   0.050   0.062  -0.018  -0.013  -0.047   1.042  -0.276  -0.050   0.013   0.073   0.005
 -0.001  -0.015  -0.006   0.005   0.010  -0.006  -0.017   0.003  -0.011   0.012  -0.276   0.121   0.018  -0.032  -0.039  -0.002
 -0.008  -0.011  -0.013  -0.001  -0.004   0.024   0.031   0.015   0.011   0.030  -0.050   0.018   0.085   0.024   0.010  -0.004
  0.004  -0.005  -0.008  -0.015   0.005   0.006  -0.009   0.030   0.032  -0.009   0.013  -0.032   0.024   0.074  -0.007  -0.001
  0.006  -0.000   0.005   0.005  -0.009   0.004   0.009  -0.015   0.007   0.029   0.073  -0.039   0.010  -0.007   0.044  -0.000
 -0.011  -0.002  -0.004   0.000  -0.008  -0.001  -0.001  -0.001  -0.001  -0.002   0.005  -0.002  -0.004  -0.001  -0.000   0.000
  0.000   0.008  -0.002  -0.012   0.001  -0.001   0.000  -0.001  -0.002   0.000  -0.004   0.002  -0.001  -0.004  -0.000   0.000
  0.007   0.000   0.007  -0.001  -0.013  -0.000  -0.001   0.001  -0.001  -0.001  -0.009   0.004  -0.000  -0.000  -0.003  -0.000


------------------------ aborting loop because EDIFF is reached ----------------------------------------


    CHARGE:  cpu time    0.1185: real time    0.1270
    FORLOC:  cpu time    0.0214: real time    0.0214
    FORNL :  cpu time    0.3895: real time    0.3921
    STRESS:  cpu time    1.3296: real time    1.4502
    FORCOR:  cpu time    0.3529: real time    0.3585
    FORHAR:  cpu time    0.1074: real time    0.1080
    MIXING:  cpu time    0.0101: real time    0.0105
    OFIELD:  cpu time    0.0002: real time    0.0002

  FORCE on cell =-STRESS in cart. coord.  units (eV):
  Direction    XX          YY          ZZ          XY          YZ          ZX
  --------------------------------------------------------------------------------------
  Alpha Z    11.98415    11.98415    11.98415
  Ewald    4204.04229  4789.84227  3770.15192  -464.75639  1925.23912  -854.87899
  Hartree  7477.71927  8023.23045  7167.99837  -422.07723  1672.26265  -737.50915
  E(xc)    -579.68655  -579.66448  -580.08559    -0.17523     0.70674    -0.38523
  Local  -12208.64719-13342.26959-11470.69535   888.80244 -3594.18242  1591.44643
  n-local  -684.86063  -684.20656  -684.20864    -0.73425     0.52121    -0.42961
  augment   412.25922   412.73103   413.68153    -0.31354    -1.10737     0.42081
  Kinetic  1366.72186  1367.78577  1370.64273    -0.73610    -3.45244     1.33643
  Fock        0.00000     0.00000     0.00000     0.00000     0.00000     0.00000
  -------------------------------------------------------------------------------------
  Total      -0.46759    -0.56695    -0.53090     0.00971    -0.01251     0.00069
  in kB      -0.05056    -0.06130    -0.05740     0.00105    -0.00135     0.00007
  external pressure =       -0.06 kB  Pullay stress =        0.00 kB


 VOLUME and BASIS-vectors are now :
 -----------------------------------------------------------------------------
  energy-cutoff  :      400.00
  volume of cell :    14817.72
      direct lattice vectors                 reciprocal lattice vectors
    24.401021615  0.000000000  0.000000000     0.040981891  0.000000000  0.000000000
     0.000000000 24.999797263  0.000000000     0.000000000  0.040000324  0.000000000
     0.000000000  0.000000000 24.290518387     0.000000000  0.000000000  0.041168327

  length of vectors
    24.401021615 24.999797263 24.290518387     0.040981891  0.040000324  0.041168327


 FORCES acting on ions
    electron-ion (+dipol)            ewald-force                    non-local-force                 convergence-correction
 -----------------------------------------------------------------------------------------------
   0.697E+03 -.375E+03 0.342E+03   -.694E+03 0.373E+03 -.342E+03   -.238E+01 0.162E+01 0.240E+00   0.546E-01 -.247E-01 0.637E-03
   -.424E+03 0.548E+03 0.537E+03   0.421E+03 -.546E+03 -.534E+03   0.319E+01 -.248E+01 -.303E+01   0.124E-01 0.501E-02 -.276E-01
   0.695E+03 0.537E+03 -.343E+03   -.691E+03 -.534E+03 0.341E+03   -.416E+01 -.281E+01 0.210E+01   0.188E-02 -.215E-01 -.104E-01
   0.496E+03 0.389E+03 0.663E+03   -.494E+03 -.387E+03 -.661E+03   -.235E+01 -.260E+01 -.271E+01   -.380E-02 -.726E-03 0.655E-02
   0.448E+03 -.598E+03 -.459E+03   -.445E+03 0.595E+03 0.456E+03   -.343E+01 0.290E+01 0.235E+01   -.935E-02 0.177E-01 -.427E-02
   -.412E+03 -.308E+03 0.692E+03   0.410E+03 0.309E+03 -.690E+03   0.186E+01 -.314E+00 -.224E+01   -.296E-01 0.188E-02 0.466E-01
   -.879E+03 -.965E+02 -.324E+03   0.874E+03 0.961E+02 0.322E+03   0.519E+01 0.374E+00 0.159E+01   -.503E-02 0.224E-02 0.222E-01
   -.296E+03 -.865E+03 0.546E+02   0.295E+03 0.861E+03 -.551E+02   0.176E+01 0.404E+01 0.542E+00   -.177E-02 0.841E-02 -.587E-03
   0.675E-01 0.356E+02 -.858E+03   -.469E+00 -.360E+02 0.856E+03   0.412E+00 0.363E+00 0.172E+01   -.112E-01 0.137E-01 -.833E-02
   -.324E+03 0.733E+03 -.308E+03   0.324E+03 -.732E+03 0.307E+03   0.179E+00 -.173E+01 0.385E+00   -.682E-02 -.652E-02 -.131E-01
 -----------------------------------------------------------------------------------------------
   -.276E+00 0.657E+00 -.994E+00   0.114E-12 -.114E-12 -.227E-12   0.276E+00 -.648E+00 0.961E+00   0.137E-02 -.452E-02 0.117E-01
 
 
 POSITION                                       TOTAL-FORCE (eV/Angst)
 -----------------------------------------------------------------------------------
     12.78354     15.95399     13.83642         0.000489     -0.002199     -0.001817
     15.92368     12.62861     12.00972         0.000211      0.002121     -0.005517
     12.44357     13.49102     15.12583         0.001582     -0.000364     -0.001847
     13.37071     13.61639     12.46157         0.001002     -0.001144      0.000739
     12.75942     17.62094     16.17982        -0.000073      0.002611     -0.003722
     15.46208     15.38452     12.71557        -0.000764      0.000610      0.003495
     16.83296     15.38643     15.15949        -0.003796     -0.000443     -0.001196
     14.99207     17.43346     14.53406         0.000931      0.001853      0.001647
     14.24473     15.28566     16.26409        -0.001758     -0.005969      0.004918
     15.19746     13.19695     14.61862         0.002177      0.002925      0.003300
 -----------------------------------------------------------------------------------
    total drift:                                0.001255      0.003705     -0.021284


--------------------------------------------------------------------------------------------------------



  FREE ENERGIE OF THE ION-ELECTRON SYSTEM (eV)
  ---------------------------------------------------
  free  energy   TOTEN  =       -19.08580606 eV

  energy  without entropy=      -19.08580606  energy(sigma->0) =      -19.08580606
 
 d Force = 0.5847301E-04[ 0.143E-04, 0.103E-03]  d Energy = 0.7841385E-04-0.199E-04
 d Force =-0.1874302E+01[-0.187E+01,-0.187E+01]  d Ewald  =-0.1874301E+01-0.700E-06


--------------------------------------------------------------------------------------------------------


    POTLOK:  cpu time    0.3745: real time    0.3771


--------------------------------------------------------------------------------------------------------


 Conjugate gradient step on ions:
 trial-energy change:   -0.000078  1 .order   -0.000058   -0.000103   -0.000014
  (g-gl).g = 0.562E-04      g.g   = 0.438E-04  gl.gl    = 0.221E-03
 g(Force)  = 0.438E-04   g(Stress)= 0.000E+00 ortho     =-0.768E-05
 gamma     =   0.25437
 trial     =   2.45634
 opt step  =   2.85254  (harmonic =   2.85254) maximal distance =0.00268855
 next E    =   -19.085787   (d E  =  -0.00006)


--------------------------------------------------------------------------------------------------------


  
 reached required accuracy - stopping structural energy minimisation
     LOOP+:  cpu time    7.8722: real time    8.7665
    4ORBIT:  cpu time    0.0000: real time    0.0000

 total amount of memory used by VASP MPI-rank0    87341. kBytes
=======================================================================

   base      :      30000. kBytes
   nonlr-proj:        443. kBytes
   fftplans  :      19792. kBytes
   grid      :      28207. kBytes
   one-center:         15. kBytes
   wavefun   :       8884. kBytes
 
  
  
 General timing and accounting informations for this job:
 ========================================================
  
                  Total CPU time used (sec):      231.227
                            User time (sec):      221.890
                          System time (sec):        9.337
                         Elapsed time (sec):      245.177
  
                   Maximum memory used (kb):      176920.
                   Average memory used (kb):           0.
  
                          Minor page faults:       880680
                          Major page faults:            1
                 Voluntary context switches:         1616
