 running on   32 total cores
 distrk:  each k-point on   32 cores,    1 groups
 distr:  one band on   16 cores,    2 groups
 using from now: INCAR     
 vasp.5.4.4.18Apr17-6-g9f103f2a35 (build Jun 19 2019 11:58:18) complex          
  
 POSCAR found type information on POSCAR  Ag
 POSCAR found :  1 types and      10 ions
 scaLAPACK will be used

 ----------------------------------------------------------------------------- 
|                                                                             |
|           W    W    AA    RRRRR   N    N  II  N    N   GGGG   !!!           |
|           W    W   A  A   R    R  NN   N  II  NN   N  G    G  !!!           |
|           W    W  A    A  R    R  N N  N  II  N N  N  G       !!!           |
|           W WW W  AAAAAA  RRRRR   N  N N  II  N  N N  G  GGG   !            |
|           WW  WW  A    A  R   R   N   NN  II  N   NN  G    G                |
|           W    W  A    A  R    R  N    N  II  N    N   GGGG   !!!           |
|                                                                             |
|      For optimal performance we recommend to set                            |
|        NCORE= 4 - approx SQRT( number of cores)                             |
|      NCORE specifies how many cores store one orbital (NPAR=cpu/NCORE).     |
|      This setting can  greatly improve the performance of VASP for DFT.     |
|      The default,   NCORE=1            might be grossly inefficient         |
|      on modern multi-core architectures or massively parallel machines.     |
|      Do your own testing !!!!                                               |
|      Unfortunately you need to use the default for GW and RPA calculations. |
|      (for HF NCORE is supported but not extensively tested yet)             |
|                                                                             |
 ----------------------------------------------------------------------------- 

 LDA part: xc-table for Pade appr. of Perdew
 POSCAR, INCAR and KPOINTS ok, starting setup
 FFT: planning ...
 WAVECAR not read
 entering main loop
       N       E                     dE             d eps       ncg     rms          rms(c)
DAV:   1     0.928535431523E+03    0.92854E+03   -0.14238E+04   132   0.694E+02
DAV:   2     0.570598649953E+03   -0.35794E+03   -0.33585E+03   248   0.728E+01
DAV:   3     0.141531426507E+03   -0.42907E+03   -0.40115E+03   232   0.822E+01
DAV:   4     0.111505389967E+00   -0.14142E+03   -0.12959E+03   176   0.805E+01
DAV:   5    -0.197623675195E+02   -0.19874E+02   -0.18873E+02   150   0.332E+01    0.505E+00
RMM:   6    -0.191755541828E+02    0.58681E+00   -0.96240E+00   132   0.112E+01    0.167E+00
RMM:   7    -0.190870531325E+02    0.88501E-01   -0.12437E+00   137   0.334E+00    0.671E-01
RMM:   8    -0.190686706676E+02    0.18382E-01   -0.70095E-02   134   0.836E-01    0.266E-01
RMM:   9    -0.190648939026E+02    0.37768E-02   -0.92641E-03   134   0.327E-01    0.999E-02
RMM:  10    -0.190653361826E+02   -0.44228E-03   -0.13916E-03   132   0.120E-01    0.580E-02
RMM:  11    -0.190669751248E+02   -0.16389E-02   -0.19482E-03   132   0.101E-01    0.402E-02
RMM:  12    -0.190689733880E+02   -0.19983E-02   -0.93792E-04   132   0.124E-01    0.254E-02
RMM:  13    -0.190711783092E+02   -0.22049E-02   -0.34919E-04   132   0.544E-02    0.106E-02
RMM:  14    -0.190726999894E+02   -0.15217E-02   -0.91134E-05    82   0.241E-02    0.703E-03
RMM:  15    -0.190734079776E+02   -0.70799E-03   -0.37989E-05    81   0.228E-02    0.518E-03
RMM:  16    -0.190739078335E+02   -0.49986E-03   -0.27389E-05    81   0.169E-02    0.277E-03
RMM:  17    -0.190743692174E+02   -0.46138E-03   -0.33946E-05    81   0.106E-02    0.164E-03
RMM:  18    -0.190744586293E+02   -0.89412E-04   -0.44406E-06    69   0.546E-03    0.803E-04
RMM:  19    -0.190745594422E+02   -0.10081E-03   -0.60868E-06    57   0.428E-03    0.599E-04
RMM:  20    -0.190745841157E+02   -0.24673E-04   -0.89183E-07    37   0.303E-03    0.322E-04
RMM:  21    -0.190745997210E+02   -0.15605E-04   -0.52741E-07    37   0.254E-03    0.311E-04
RMM:  22    -0.190746067567E+02   -0.70357E-05   -0.30010E-08    21   0.225E-03
   1 F= -.19074607E+02 E0= -.19074607E+02  d E =-.190746E+02
 curvature:   0.00 expect dE= 0.000E+00 dE for cont linesearch  0.000E+00
 trial: gam= 0.00000 g(F)=  0.685E-02 g(S)=  0.000E+00 ort = 0.000E+00 (trialstep = 0.100E+01)
 search vector abs. value=  0.685E-02
 bond charge predicted
       N       E                     dE             d eps       ncg     rms          rms(c)
DAV:   1    -0.190792182658E+02   -0.46185E-02   -0.26274E+00   134   0.616E+00    0.512E-02
RMM:   2    -0.190803068173E+02   -0.10886E-02   -0.11829E-02   132   0.469E-01    0.348E-02
RMM:   3    -0.190803055490E+02    0.12683E-05   -0.25901E-04   132   0.633E-02    0.310E-02
RMM:   4    -0.190802844275E+02    0.21122E-04   -0.11546E-04   132   0.361E-02    0.779E-03
RMM:   5    -0.190802918895E+02   -0.74620E-05   -0.11561E-05    75   0.141E-02
   2 F= -.19080292E+02 E0= -.19080292E+02  d E =-.568513E-02
 trial-energy change:   -0.005685  1 .order   -0.005680   -0.006847   -0.004512
 step:   2.9326(harm=  2.9326)  dis= 0.01445  next Energy=   -19.084647 (dE=-0.100E-01)
 bond charge predicted
       N       E                     dE             d eps       ncg     rms          rms(c)
DAV:   1    -0.190801567074E+02    0.12772E-03   -0.98107E+00   132   0.119E+01    0.102E-01
RMM:   2    -0.190842064155E+02   -0.40497E-02   -0.44499E-02   132   0.910E-01    0.671E-02
RMM:   3    -0.190841839134E+02    0.22502E-04   -0.95174E-04   132   0.123E-01    0.597E-02
RMM:   4    -0.190840784780E+02    0.10544E-03   -0.47395E-04   132   0.733E-02    0.139E-02
RMM:   5    -0.190840928689E+02   -0.14391E-04   -0.30025E-05    85   0.227E-02    0.843E-03
RMM:   6    -0.190840921928E+02    0.67610E-06   -0.22771E-05    83   0.162E-02
   3 F= -.19084092E+02 E0= -.19084092E+02  d E =-.948544E-02
 curvature:  -1.47 expect dE=-0.815E-03 dE for cont linesearch -0.714E-04
 ZBRENT: interpolating
 opt :   2.7133  next Energy=   -19.084156 (dE=-0.955E-02)
 bond charge predicted
       N       E                     dE             d eps       ncg     rms          rms(c)
DAV:   1    -0.190841151082E+02   -0.22239E-04   -0.12633E-01   136   0.135E+00    0.109E-02
RMM:   2    -0.190841651186E+02   -0.50010E-04   -0.55838E-04   132   0.102E-01    0.797E-03
RMM:   3    -0.190841652509E+02   -0.13222E-06   -0.99125E-06    71   0.138E-02
   4 F= -.19084165E+02 E0= -.19084165E+02  d E =-.955849E-02
 curvature:  -1.30 expect dE=-0.568E-03 dE for cont linesearch -0.522E-05
 ZBRENT: interpolating
 opt :   2.7622  next Energy=   -19.084169 (dE=-0.956E-02)
 bond charge predicted
       N       E                     dE             d eps       ncg     rms          rms(c)
DAV:   1    -0.190841597225E+02    0.53961E-05   -0.61468E-03   136   0.297E-01    0.323E-03
RMM:   2    -0.190841640019E+02   -0.42793E-05   -0.27000E-05    73   0.238E-02
   5 F= -.19084164E+02 E0= -.19084164E+02  d E =-.955725E-02
 curvature:  -1.01 expect dE=-0.453E-03 dE for cont linesearch -0.109E-04
 ZBRENT: interpolating
 opt :   2.7319  next Energy=   -19.084167 (dE=-0.956E-02)
 bond charge predicted
       N       E                     dE             d eps       ncg     rms          rms(c)
DAV:   1    -0.190841677486E+02   -0.80261E-05   -0.23821E-03   136   0.186E-01    0.241E-03
RMM:   2    -0.190841693549E+02   -0.16063E-05   -0.11593E-05    68   0.153E-02
   6 F= -.19084169E+02 E0= -.19084169E+02  d E =-.956260E-02
 curvature:  -0.14 expect dE=-0.619E-04 dE for cont linesearch -0.329E-07
 trial: gam= 0.05743 g(F)=  0.433E-03 g(S)=  0.000E+00 ort = 0.397E-04 (trialstep = 0.135E+01)
 search vector abs. value=  0.460E-03
 bond charge predicted
       N       E                     dE             d eps       ncg     rms          rms(c)
DAV:   1    -0.190845547532E+02   -0.38700E-03   -0.31622E-01   132   0.214E+00    0.156E-02
RMM:   2    -0.190846867032E+02   -0.13195E-03   -0.13841E-03   132   0.166E-01    0.121E-02
RMM:   3    -0.190846855573E+02    0.11460E-05   -0.26490E-05    75   0.221E-02
   7 F= -.19084686E+02 E0= -.19084686E+02  d E =-.516202E-03
 trial-energy change:   -0.000516  1 .order   -0.000485   -0.000586   -0.000383
 step:   3.8954(harm=  3.8954)  dis= 0.00482  next Energy=   -19.085017 (dE=-0.848E-03)
 bond charge predicted
       N       E                     dE             d eps       ncg     rms          rms(c)
DAV:   1    -0.190847843328E+02   -0.97630E-04   -0.11364E+00   132   0.405E+00    0.304E-02
RMM:   2    -0.190852477000E+02   -0.46337E-03   -0.49228E-03   132   0.314E-01    0.241E-02
RMM:   3    -0.190852422752E+02    0.54247E-05   -0.10881E-04   132   0.414E-02    0.224E-02
RMM:   4    -0.190852217223E+02    0.20553E-04   -0.57139E-05   116   0.272E-02    0.513E-03
RMM:   5    -0.190852231142E+02   -0.13919E-05   -0.12741E-05    72   0.139E-02
   8 F= -.19085223E+02 E0= -.19085223E+02  d E =-.105376E-02
 curvature:  -2.06 expect dE=-0.381E-03 dE for cont linesearch -0.931E-04
 ZBRENT: increasing intervall
 opt :   8.9934  next Energy=   -19.085242 (dE=-0.107E-02)
 bond charge predicted
       N       E                     dE             d eps       ncg     rms          rms(c)
DAV:   1    -0.190828988977E+02    0.23228E-02   -0.45335E+00   132   0.809E+00    0.614E-02
RMM:   2    -0.190847835968E+02   -0.18847E-02   -0.20017E-02   132   0.634E-01    0.460E-02
RMM:   3    -0.190847648268E+02    0.18770E-04   -0.44367E-04   135   0.838E-02    0.429E-02
RMM:   4    -0.190846873909E+02    0.77436E-04   -0.15352E-04   132   0.444E-02    0.143E-02
RMM:   5    -0.190846871276E+02    0.26333E-06   -0.80794E-05   129   0.324E-02
   9 F= -.19084687E+02 E0= -.19084687E+02  d E =-.517773E-03
 curvature:  -0.41 expect dE=-0.353E-03 dE for cont linesearch -0.881E-04
 ZBRENT: bracketing found
 ZBRENT: interpolating
 opt :   5.4949  next Energy=   -19.085338 (dE=-0.117E-02)
 bond charge predicted
       N       E                     dE             d eps       ncg     rms          rms(c)
DAV:   1    -0.190844498757E+02    0.23752E-03   -0.21389E+00   132   0.556E+00    0.390E-02
RMM:   2    -0.190853377635E+02   -0.88789E-03   -0.92654E-03   132   0.430E-01    0.316E-02
RMM:   3    -0.190853325110E+02    0.52524E-05   -0.20528E-04   134   0.570E-02    0.297E-02
RMM:   4    -0.190853006623E+02    0.31849E-04   -0.85826E-05   131   0.329E-02    0.814E-03
RMM:   5    -0.190853056832E+02   -0.50209E-05   -0.30756E-05    85   0.205E-02
  10 F= -.19085306E+02 E0= -.19085306E+02  d E =-.113633E-02
 curvature:  -0.53 expect dE=-0.147E-03 dE for cont linesearch -0.475E-05
 ZBRENT: interpolating
 opt :   5.0033  next Energy=   -19.085321 (dE=-0.115E-02)
 bond charge predicted
       N       E                     dE             d eps       ncg     rms          rms(c)
DAV:   1    -0.190852893032E+02    0.11359E-04   -0.41746E-02   132   0.776E-01    0.623E-03
RMM:   2    -0.190853071231E+02   -0.17820E-04   -0.18167E-04   128   0.599E-02    0.457E-03
RMM:   3    -0.190853072706E+02   -0.14753E-06   -0.33711E-06    71   0.795E-03
  11 F= -.19085307E+02 E0= -.19085307E+02  d E =-.113792E-02
 curvature:  -1.77 expect dE=-0.391E-03 dE for cont linesearch -0.655E-05
 trial: gam= 0.38400 g(F)=  0.221E-03 g(S)=  0.000E+00 ort = 0.413E-04 (trialstep = 0.208E+01)
 search vector abs. value=  0.321E-03
 bond charge predicted
       N       E                     dE             d eps       ncg     rms          rms(c)
DAV:   1    -0.190854403607E+02   -0.13324E-03   -0.52336E-01   132   0.276E+00    0.198E-02
RMM:   2    -0.190856547768E+02   -0.21442E-03   -0.23105E-03   132   0.215E-01    0.152E-02
RMM:   3    -0.190856525894E+02    0.21874E-05   -0.47342E-05    93   0.288E-02
  12 F= -.19085653E+02 E0= -.19085653E+02  d E =-.345319E-03
 trial-energy change:   -0.000345  1 .order   -0.000305   -0.000492   -0.000117
 step:   2.4468(harm=  2.7288)  dis= 0.00356  next Energy=   -19.085663 (dE=-0.356E-03)
 bond charge predicted
       N       E                     dE             d eps       ncg     rms          rms(c)
DAV:   1    -0.190856713738E+02   -0.16597E-04   -0.16867E-02   132   0.498E-01    0.533E-03
RMM:   2    -0.190856760918E+02   -0.47180E-05   -0.66122E-05   122   0.374E-02
  13 F= -.19085676E+02 E0= -.19085676E+02  d E =-.368821E-03
 curvature:  -1.50 expect dE=-0.461E-04 dE for cont linesearch -0.108E-04
 ZBRENT: increasing intervall
 opt :   3.1848  next Energy=   -19.085705 (dE=-0.398E-03)
 bond charge predicted
       N       E                     dE             d eps       ncg     rms          rms(c)
DAV:   1    -0.190856912722E+02   -0.19898E-04   -0.66350E-02   132   0.983E-01    0.681E-03
RMM:   2    -0.190857160918E+02   -0.24820E-04   -0.27964E-04   132   0.753E-02    0.769E-03
RMM:   3    -0.190857151293E+02    0.96250E-06   -0.54516E-06    69   0.102E-02
  14 F= -.19085715E+02 E0= -.19085715E+02  d E =-.407859E-03
 curvature:  -4.06 expect dE=-0.130E-03 dE for cont linesearch -0.626E-05
 ZBRENT: increasing intervall
 opt :   4.6608  next Energy=   -19.085710 (dE=-0.403E-03)
 bond charge predicted
       N       E                     dE             d eps       ncg     rms          rms(c)
DAV:   1    -0.190856112297E+02    0.10486E-03   -0.26493E-01   132   0.197E+00    0.153E-02
RMM:   2    -0.190857158808E+02   -0.10465E-03   -0.11592E-03   132   0.153E-01    0.112E-02
RMM:   3    -0.190857138530E+02    0.20278E-05   -0.21088E-05    72   0.201E-02
  15 F= -.19085714E+02 E0= -.19085714E+02  d E =-.406582E-03
 curvature:   3.38 expect dE= 0.289E-03 dE for cont linesearch  0.733E-04
 ZBRENT: bracketing found
 ZBRENT: interpolating
 opt :   3.4954  next Energy=   -19.085719 (dE=-0.411E-03)
 bond charge predicted
       N       E                     dE             d eps       ncg     rms          rms(c)
DAV:   1    -0.190856486484E+02    0.67232E-04   -0.16389E-01   132   0.154E+00    0.115E-02
RMM:   2    -0.190857203432E+02   -0.71695E-04   -0.74573E-04   132   0.121E-01    0.743E-03
RMM:   3    -0.190857206847E+02   -0.34147E-06   -0.14404E-05    69   0.167E-02
  16 F= -.19085721E+02 E0= -.19085721E+02  d E =-.413414E-03
 curvature:  -0.16 expect dE=-0.740E-05 dE for cont linesearch -0.189E-05
 ZBRENT: bisectioning
 opt :   4.0781  next Energy=   -19.085778 (dE=-0.471E-03)
 bond charge predicted
       N       E                     dE             d eps       ncg     rms          rms(c)
DAV:   1    -0.190857090218E+02    0.11321E-04   -0.40859E-02   132   0.771E-01    0.780E-03
RMM:   2    -0.190857264747E+02   -0.17453E-04   -0.19726E-04   128   0.621E-02    0.267E-03
RMM:   3    -0.190857265406E+02   -0.65949E-07   -0.40511E-06    66   0.883E-03
  17 F= -.19085727E+02 E0= -.19085727E+02  d E =-.419270E-03
 curvature:  -4.84 expect dE=-0.227E-03 dE for cont linesearch -0.843E-05
 ZBRENT: interpolating
 opt :   3.9168  next Energy=   -19.085728 (dE=-0.421E-03)
 bond charge predicted
       N       E                     dE             d eps       ncg     rms          rms(c)
DAV:   1    -0.190857249077E+02    0.15669E-05   -0.31092E-03   132   0.213E-01    0.257E-03
RMM:   2    -0.190857263081E+02   -0.14003E-05   -0.14006E-05    66   0.175E-02
  18 F= -.19085726E+02 E0= -.19085726E+02  d E =-.419037E-03
 curvature:  -1.09 expect dE=-0.485E-04 dE for cont linesearch -0.239E-05
 ZBRENT: interpolating
 opt :   4.0021  next Energy=   -19.085727 (dE=-0.420E-03)
 bond charge predicted
       N       E                     dE             d eps       ncg     rms          rms(c)
DAV:   1    -0.190857264758E+02   -0.15680E-05   -0.86555E-04   132   0.113E-01    0.151E-03
RMM:   2    -0.190857268673E+02   -0.39152E-06   -0.41975E-06    66   0.953E-03
  19 F= -.19085727E+02 E0= -.19085727E+02  d E =-.419597E-03
 curvature:  -0.41 expect dE=-0.185E-04 dE for cont linesearch -0.264E-06
 ZBRENT: bisectioning
 opt :   3.9594  next Energy=   -19.085727 (dE=-0.420E-03)
 bond charge predicted
       N       E                     dE             d eps       ncg     rms          rms(c)
DAV:   1    -0.190857269442E+02   -0.46849E-06   -0.21513E-04   130   0.562E-02    0.778E-04
RMM:   2    -0.190857271594E+02   -0.21512E-06   -0.10589E-06    57   0.480E-03
  20 F= -.19085727E+02 E0= -.19085727E+02  d E =-.419889E-03
 curvature:  -0.78 expect dE=-0.328E-04 dE for cont linesearch -0.193E-06
 ZBRENT: interpolating
 opt :   3.9758  next Energy=   -19.085727 (dE=-0.420E-03)
 bond charge predicted
       N       E                     dE             d eps       ncg     rms          rms(c)
DAV:   1    -0.190857271884E+02   -0.24413E-06   -0.30415E-05    82   0.215E-02    0.574E-04
RMM:   2    -0.190857273543E+02   -0.16596E-06   -0.95539E-07    39   0.449E-03
  21 F= -.19085727E+02 E0= -.19085727E+02  d E =-.420084E-03
 curvature:  -0.29 expect dE=-0.130E-04 dE for cont linesearch -0.208E-06
 ZBRENT: interpolating
 opt :   3.9655  next Energy=   -19.085727 (dE=-0.420E-03)
 bond charge predicted
       N       E                     dE             d eps       ncg     rms          rms(c)
DAV:   1    -0.190857274160E+02   -0.22762E-06   -0.11121E-05    66   0.132E-02    0.485E-04
RMM:   2    -0.190857275243E+02   -0.10829E-06   -0.38541E-07    45   0.335E-03
  22 F= -.19085728E+02 E0= -.19085728E+02  d E =-.420254E-03
 curvature:  -0.04 expect dE=-0.163E-05 dE for cont linesearch -0.211E-07
 ZBRENT: bisectioning
 opt :   3.9706  next Energy=   -19.085728 (dE=-0.420E-03)
 bond charge predicted
       N       E                     dE             d eps       ncg     rms          rms(c)
DAV:   1    -0.190857275998E+02   -0.18381E-06   -0.26551E-06    66   0.643E-03    0.245E-04
RMM:   2    -0.190857276487E+02   -0.48891E-07    0.00000E+00     3   0.173E-03
  23 F= -.19085728E+02 E0= -.19085728E+02  d E =-.420378E-03
 curvature:  -0.14 expect dE=-0.617E-05 dE for cont linesearch -0.259E-07
 trial: gam= 0.25437 g(F)=  0.438E-04 g(S)=  0.000E+00 ort =-0.768E-05 (trialstep = 0.246E+01)
 search vector abs. value=  0.606E-04
 bond charge predicted
       N       E                     dE             d eps       ncg     rms          rms(c)
DAV:   1    -0.190857491590E+02   -0.21559E-04   -0.13878E-01   132   0.141E+00    0.982E-03
RMM:   2    -0.190858065009E+02   -0.57342E-04   -0.60112E-04   132   0.108E-01    0.807E-03
RMM:   3    -0.190858060625E+02    0.43839E-06   -0.10795E-05    69   0.142E-02
  24 F= -.19085806E+02 E0= -.19085806E+02  d E =-.784138E-04
 trial-energy change:   -0.000078  1 .order   -0.000058   -0.000103   -0.000014
 step:   2.8525(harm=  2.8525)  dis= 0.00269  next Energy=   -19.085787 (dE=-0.596E-04)
 reached required accuracy - stopping structural energy minimisation
