BLACK                                   
           1
    24.401022    0.000000    0.000000
     0.000000   24.999797    0.000000
     0.000000    0.000000   24.290518
   Ag
  10
Direct configuration=     1
   0.52295589  0.63858922  0.56894562
   0.65270263  0.50491180  0.49441346
   0.50967532  0.53965138  0.62270214
   0.54765564  0.54498303  0.51290455
   0.52298453  0.70490531  0.66616645
   0.63399268  0.61594416  0.52262954
   0.69003751  0.61559930  0.62390138
   0.61464999  0.69730901  0.59783546
   0.58371683  0.61074425  0.67104693
   0.62343991  0.52733009  0.60262179
Direct configuration=     2
   0.52315787  0.63854269  0.56914448
   0.65259480  0.50501298  0.49448923
   0.50980429  0.53974350  0.62262671
   0.54785392  0.54499522  0.51303481
   0.52307712  0.70480685  0.66607989
   0.63390067  0.61575198  0.52278242
   0.68988817  0.61559422  0.62386116
   0.61449185  0.69715432  0.59794480
   0.58372285  0.61086089  0.67075702
   0.62331939  0.52750490  0.60244681
Direct configuration=     3
   0.52354823  0.63845276  0.56952878
   0.65238639  0.50520853  0.49463566
   0.51005354  0.53992153  0.62248093
   0.54823711  0.54501879  0.51328656
   0.52325604  0.70461657  0.66591260
   0.63372286  0.61538057  0.52307786
   0.68959954  0.61558439  0.62378342
   0.61418624  0.69685536  0.59815611
   0.58373449  0.61108631  0.67019675
   0.62308649  0.52784275  0.60210863
Direct configuration=     4
   0.52350394  0.63846297  0.56948518
   0.65241004  0.50518634  0.49461905
   0.51002526  0.53990133  0.62249747
   0.54819363  0.54501612  0.51325800
   0.52323574  0.70463816  0.66593159
   0.63374304  0.61542272  0.52304434
   0.68963229  0.61558550  0.62379224
   0.61422091  0.69688928  0.59813213
   0.58373317  0.61106073  0.67026032
   0.62311291  0.52780442  0.60214700
Direct configuration=     5
   0.52351382  0.63846069  0.56949490
   0.65240476  0.50519129  0.49462275
   0.51003157  0.53990583  0.62249378
   0.54820333  0.54501671  0.51326437
   0.52324027  0.70463334  0.66592735
   0.63373854  0.61541331  0.52305182
   0.68962498  0.61558525  0.62379027
   0.61421318  0.69688172  0.59813748
   0.58373346  0.61106644  0.67024614
   0.62310702  0.52781297  0.60213844
Direct configuration=     6
   0.52350769  0.63846210  0.56948886
   0.65240804  0.50518822  0.49462045
   0.51002765  0.53990304  0.62249607
   0.54819731  0.54501634  0.51326041
   0.52323746  0.70463633  0.66592998
   0.63374133  0.61541915  0.52304718
   0.68962952  0.61558541  0.62379150
   0.61421798  0.69688641  0.59813416
   0.58373328  0.61106290  0.67025495
   0.62311068  0.52780766  0.60214376
Direct configuration=     7
   0.52354434  0.63840774  0.56952280
   0.65244794  0.50516759  0.49459072
   0.51003949  0.53988864  0.62251553
   0.54813620  0.54495268  0.51323279
   0.52319330  0.70465939  0.66595771
   0.63375524  0.61542173  0.52311574
   0.68963551  0.61556508  0.62382703
   0.61425353  0.69694360  0.59817888
   0.58376370  0.61110703  0.67010385
   0.62304168  0.52785409  0.60212226
Direct configuration=     8
   0.52361372  0.63830481  0.56958704
   0.65252347  0.50512854  0.49453444
   0.51006192  0.53986138  0.62255238
   0.54802051  0.54483214  0.51318050
   0.52310970  0.70470305  0.66601021
   0.63378158  0.61542660  0.52324554
   0.68964687  0.61552661  0.62389429
   0.61432083  0.69705186  0.59826356
   0.58382129  0.61119059  0.66981780
   0.62291105  0.52794199  0.60208155
Direct configuration=     9
   0.52375249  0.63809896  0.56971552
   0.65267455  0.50505042  0.49442187
   0.51010677  0.53980686  0.62262607
   0.54778913  0.54459108  0.51307593
   0.52294249  0.70479036  0.66611521
   0.63383425  0.61543636  0.52350515
   0.68966957  0.61544965  0.62402883
   0.61445543  0.69726837  0.59843291
   0.58393646  0.61135771  0.66924569
   0.62264979  0.52811779  0.60200014
Direct configuration=    10
   0.52365726  0.63824022  0.56962735
   0.65257087  0.50510403  0.49449912
   0.51007599  0.53984427  0.62257550
   0.54794792  0.54475651  0.51314769
   0.52305724  0.70473044  0.66604315
   0.63379810  0.61542966  0.52332699
   0.68965399  0.61550246  0.62393650
   0.61436306  0.69711979  0.59831669
   0.58385742  0.61124303  0.66963830
   0.62282908  0.52799714  0.60205601
Direct configuration=    11
   0.52364388  0.63826007  0.56961496
   0.65255631  0.50511156  0.49450997
   0.51007166  0.53984953  0.62256839
   0.54797023  0.54477975  0.51315778
   0.52307336  0.70472202  0.66603303
   0.63379302  0.61542872  0.52330196
   0.68965180  0.61550988  0.62392353
   0.61435008  0.69709891  0.59830036
   0.58384632  0.61122691  0.66969347
   0.62285427  0.52798019  0.60206386
Direct configuration=    12
   0.52372487  0.63822967  0.56962222
   0.65255636  0.50512778  0.49449007
   0.51001250  0.53976087  0.62264890
   0.54796468  0.54471675  0.51308233
   0.52299604  0.70476895  0.66606808
   0.63375375  0.61540250  0.52335478
   0.68975784  0.61548550  0.62399156
   0.61438234  0.69722000  0.59832432
   0.58382203  0.61131995  0.66963207
   0.62284052  0.52793558  0.60195298
Direct configuration=    13
   0.52373926  0.63822427  0.56962351
   0.65255637  0.50513066  0.49448654
   0.51000199  0.53974512  0.62266320
   0.54796369  0.54470556  0.51306893
   0.52298231  0.70477728  0.66607431
   0.63374677  0.61539785  0.52336416
   0.68977667  0.61548117  0.62400364
   0.61438807  0.69724151  0.59832858
   0.58381772  0.61133647  0.66962117
   0.62283808  0.52792766  0.60193329
Direct configuration=    14
   0.52376803  0.63821347  0.56962608
   0.65255639  0.50513642  0.49447947
   0.50998098  0.53971363  0.62269180
   0.54796172  0.54468318  0.51304213
   0.52295484  0.70479395  0.66608676
   0.63373282  0.61538853  0.52338292
   0.68981434  0.61547251  0.62402780
   0.61439953  0.69728452  0.59833709
   0.58380909  0.61136952  0.66959936
   0.62283319  0.52791182  0.60189390
Direct configuration=    15
   0.52382557  0.63819188  0.56963124
   0.65255642  0.50514794  0.49446533
   0.50993895  0.53965065  0.62274899
   0.54795777  0.54463842  0.51298853
   0.52289992  0.70482729  0.66611166
   0.63370492  0.61536991  0.52342044
   0.68988967  0.61545520  0.62407613
   0.61442245  0.69737054  0.59835411
   0.58379184  0.61143561  0.66955575
   0.62282342  0.52788013  0.60181514
Direct configuration=    16
   0.52378014  0.63820893  0.56962717
   0.65255640  0.50513885  0.49447649
   0.50997213  0.53970038  0.62270383
   0.54796089  0.54467376  0.51303085
   0.52294328  0.70480097  0.66609200
   0.63372695  0.61538461  0.52339081
   0.68983019  0.61546887  0.62403797
   0.61440436  0.69730262  0.59834067
   0.58380546  0.61138343  0.66959019
   0.62283114  0.52790515  0.60187733
Direct configuration=    17
   0.52380285  0.63820040  0.56962920
   0.65255641  0.50514340  0.49447091
   0.50995554  0.53967551  0.62272641
   0.54795933  0.54465609  0.51300969
   0.52292160  0.70481413  0.66610183
   0.63371594  0.61537726  0.52340562
   0.68985993  0.61546203  0.62405705
   0.61441340  0.69733658  0.59834739
   0.58379865  0.61140952  0.66957297
   0.62282728  0.52789264  0.60184623
Direct configuration=    18
   0.52379657  0.63820276  0.56962864
   0.65255641  0.50514214  0.49447246
   0.50996013  0.53968239  0.62272016
   0.54795976  0.54466098  0.51301555
   0.52292760  0.70481048  0.66609911
   0.63371899  0.61537930  0.52340153
   0.68985170  0.61546392  0.62405177
   0.61441090  0.69732719  0.59834553
   0.58380053  0.61140230  0.66957773
   0.62282835  0.52789610  0.60185484
Direct configuration=    19
   0.52379989  0.63820151  0.56962894
   0.65255641  0.50514280  0.49447164
   0.50995771  0.53967876  0.62272346
   0.54795953  0.54465840  0.51301245
   0.52292443  0.70481241  0.66610055
   0.63371738  0.61537822  0.52340369
   0.68985605  0.61546292  0.62405456
   0.61441222  0.69733215  0.59834652
   0.58379954  0.61140612  0.66957521
   0.62282778  0.52789427  0.60185029
Direct configuration=    20
   0.52379823  0.63820214  0.56962879
   0.65255641  0.50514247  0.49447205
   0.50995892  0.53968058  0.62272181
   0.54795965  0.54465969  0.51301400
   0.52292602  0.70481145  0.66609983
   0.63371818  0.61537876  0.52340261
   0.68985387  0.61546342  0.62405317
   0.61441156  0.69732967  0.59834603
   0.58380003  0.61140421  0.66957647
   0.62282806  0.52789518  0.60185256
Direct configuration=    21
   0.52379886  0.63820190  0.56962884
   0.65255641  0.50514260  0.49447189
   0.50995846  0.53967988  0.62272245
   0.54795961  0.54465919  0.51301341
   0.52292541  0.70481182  0.66610011
   0.63371787  0.61537855  0.52340302
   0.68985471  0.61546323  0.62405370
   0.61441182  0.69733062  0.59834621
   0.58379984  0.61140494  0.66957599
   0.62282796  0.52789483  0.60185169
Direct configuration=    22
   0.52379846  0.63820205  0.56962881
   0.65255641  0.50514252  0.49447199
   0.50995875  0.53968032  0.62272205
   0.54795963  0.54465950  0.51301378
   0.52292579  0.70481158  0.66609993
   0.63371807  0.61537868  0.52340276
   0.68985418  0.61546335  0.62405337
   0.61441166  0.69733002  0.59834610
   0.58379996  0.61140448  0.66957629
   0.62282802  0.52789505  0.60185224
Direct configuration=    23
   0.52379866  0.63820197  0.56962883
   0.65255641  0.50514256  0.49447194
   0.50995860  0.53968010  0.62272225
   0.54795962  0.54465935  0.51301359
   0.52292560  0.70481170  0.66610002
   0.63371797  0.61537862  0.52340289
   0.68985444  0.61546329  0.62405353
   0.61441174  0.69733032  0.59834616
   0.58379990  0.61140471  0.66957614
   0.62282799  0.52789494  0.60185196
Direct configuration=    24
   0.52389354  0.63816492  0.56962238
   0.65258248  0.50514857  0.49441996
   0.50996120  0.53964535  0.62270524
   0.54795679  0.54466010  0.51302190
   0.52290517  0.70484340  0.66609625
   0.63366547  0.61538560  0.52347856
   0.68984663  0.61546205  0.62409068
   0.61440334  0.69734402  0.59834275
   0.58377584  0.61143131  0.66956543
   0.62282047  0.52788224  0.60182417
