  17  17   0   0
  0.1049752E+04  0.2637762E-08  0.2673697E-08  0.2530391E-08  0.5000000E-15
  1.000000000000000E-004
  CAR 
 BLACK                                   
      0.17396975    -10.49868286  301     -3.99763653      1.00000000
    -10.499  0.0000E+00  0.0000E+00
    -10.463  0.0000E+00  0.0000E+00
    -10.428  0.0000E+00  0.0000E+00
    -10.392  0.0000E+00  0.0000E+00
    -10.356  0.0000E+00  0.0000E+00
    -10.321  0.0000E+00  0.0000E+00
    -10.285  0.1560E-16  0.5551E-18
    -10.250  0.3542E-13  0.1261E-14
    -10.214  0.3125E-10  0.1113E-11
    -10.179  0.1024E-07  0.3655E-09
    -10.143  0.1256E-05  0.4506E-07
    -10.107  0.5818E-04  0.2115E-05
    -10.072  0.1028E-02  0.3870E-04
    -10.036  0.7025E-02  0.2886E-03
    -10.001  0.1876E-01  0.9562E-03
     -9.965  0.1974E-01  0.1659E-02
     -9.929  0.8185E-02  0.1950E-02
     -9.894  0.1328E-02  0.1997E-02
     -9.858  0.8341E-04  0.2000E-02
     -9.823  0.2043E-05  0.2000E-02
     -9.787  0.3818E-05  0.2000E-02
     -9.752  0.1365E-03  0.2005E-02
     -9.716  0.1891E-02  0.2072E-02
     -9.680  0.1052E-01  0.2446E-02
     -9.645  0.2676E-01  0.3398E-02
     -9.609  0.4252E-01  0.4911E-02
     -9.574  0.4889E-01  0.6650E-02
     -9.538  0.3376E-01  0.7851E-02
     -9.503  0.2660E-01  0.8798E-02
     -9.467  0.3876E-01  0.1018E-01
     -9.431  0.3452E-01  0.1140E-01
     -9.396  0.1406E-01  0.1191E-01
     -9.360  0.2480E-02  0.1199E-01
     -9.325  0.1807E-03  0.1200E-01
     -9.289  0.5222E-05  0.1200E-01
     -9.254  0.5821E-07  0.1200E-01
     -9.218  0.7844E-08  0.1200E-01
     -9.182  0.9859E-06  0.1200E-01
     -9.147  0.4840E-04  0.1200E-01
     -9.111  0.9154E-03  0.1203E-01
     -9.076  0.6902E-02  0.1228E-01
     -9.040  0.2231E-01  0.1307E-01
     -9.005  0.3562E-01  0.1434E-01
     -8.969  0.3573E-01  0.1561E-01
     -8.933  0.4009E-01  0.1704E-01
     -8.898  0.6300E-01  0.1928E-01
     -8.862  0.7375E-01  0.2190E-01
     -8.827  0.6731E-01  0.2430E-01
     -8.791  0.6528E-01  0.2662E-01
     -8.755  0.6491E-01  0.2893E-01
     -8.720  0.7407E-01  0.3156E-01
     -8.684  0.8807E-01  0.3470E-01
     -8.649  0.1029E+00  0.3836E-01
     -8.613  0.9912E-01  0.4188E-01
     -8.578  0.7030E-01  0.4439E-01
     -8.542  0.6232E-01  0.4660E-01
     -8.506  0.6403E-01  0.4888E-01
     -8.471  0.5034E-01  0.5067E-01
     -8.435  0.3739E-01  0.5200E-01
     -8.400  0.4181E-01  0.5349E-01
     -8.364  0.4668E-01  0.5515E-01
     -8.329  0.3671E-01  0.5645E-01
     -8.293  0.4522E-01  0.5806E-01
     -8.257  0.7758E-01  0.6082E-01
     -8.222  0.9699E-01  0.6427E-01
     -8.186  0.7146E-01  0.6682E-01
     -8.151  0.3071E-01  0.6791E-01
     -8.115  0.2384E-01  0.6876E-01
     -8.080  0.5286E-01  0.7064E-01
     -8.044  0.7189E-01  0.7319E-01
     -8.008  0.7500E-01  0.7586E-01
     -7.973  0.7631E-01  0.7858E-01
     -7.937  0.5931E-01  0.8069E-01
     -7.902  0.5021E-01  0.8247E-01
     -7.866  0.6222E-01  0.8469E-01
     -7.831  0.6863E-01  0.8713E-01
     -7.795  0.5087E-01  0.8894E-01
     -7.759  0.2352E-01  0.8977E-01
     -7.724  0.6797E-02  0.9002E-01
     -7.688  0.8910E-02  0.9033E-01
     -7.653  0.2790E-01  0.9133E-01
     -7.617  0.4490E-01  0.9292E-01
     -7.581  0.4626E-01  0.9457E-01
     -7.546  0.5039E-01  0.9636E-01
     -7.510  0.6666E-01  0.9873E-01
     -7.475  0.8761E-01  0.1019E+00
     -7.439  0.9824E-01  0.1053E+00
     -7.404  0.1053E+00  0.1091E+00
     -7.368  0.1147E+00  0.1132E+00
     -7.332  0.1157E+00  0.1173E+00
     -7.297  0.1094E+00  0.1212E+00
     -7.261  0.1089E+00  0.1251E+00
     -7.226  0.1116E+00  0.1290E+00
     -7.190  0.1115E+00  0.1330E+00
     -7.155  0.1167E+00  0.1371E+00
     -7.119  0.1106E+00  0.1411E+00
     -7.083  0.1017E+00  0.1447E+00
     -7.048  0.1026E+00  0.1483E+00
     -7.012  0.7808E-01  0.1511E+00
     -6.977  0.5127E-01  0.1529E+00
     -6.941  0.6219E-01  0.1552E+00
     -6.906  0.8547E-01  0.1582E+00
     -6.870  0.8114E-01  0.1611E+00
     -6.834  0.5763E-01  0.1631E+00
     -6.799  0.4512E-01  0.1647E+00
     -6.763  0.4467E-01  0.1663E+00
     -6.728  0.5588E-01  0.1683E+00
     -6.692  0.5896E-01  0.1704E+00
     -6.657  0.4440E-01  0.1720E+00
     -6.621  0.3171E-01  0.1731E+00
     -6.585  0.1843E-01  0.1738E+00
     -6.550  0.5466E-02  0.1740E+00
     -6.514  0.1443E-02  0.1740E+00
     -6.479  0.5972E-02  0.1742E+00
     -6.443  0.1761E-01  0.1749E+00
     -6.407  0.2056E-01  0.1756E+00
     -6.372  0.9457E-02  0.1759E+00
     -6.336  0.1706E-02  0.1760E+00
     -6.301  0.1613E-03  0.1760E+00
     -6.265  0.8201E-03  0.1760E+00
     -6.230  0.6101E-02  0.1762E+00
     -6.194  0.1780E-01  0.1769E+00
     -6.158  0.2044E-01  0.1776E+00
     -6.123  0.9256E-02  0.1779E+00
     -6.087  0.1642E-02  0.1780E+00
     -6.052  0.1128E-03  0.1780E+00
     -6.016  0.2967E-05  0.1780E+00
     -5.981  0.2952E-07  0.1780E+00
     -5.945  0.1101E-09  0.1780E+00
     -5.909  0.1527E-12  0.1780E+00
     -5.874  0.7490E-16  0.1780E+00
     -5.838  0.0000E+00  0.1780E+00
     -5.803  0.0000E+00  0.1780E+00
     -5.767  0.0000E+00  0.1780E+00
     -5.732  0.0000E+00  0.1780E+00
     -5.696  0.0000E+00  0.1780E+00
     -5.660  0.0000E+00  0.1780E+00
     -5.625  0.0000E+00  0.1780E+00
     -5.589  0.0000E+00  0.1780E+00
     -5.554  0.0000E+00  0.1780E+00
     -5.518  0.0000E+00  0.1780E+00
     -5.483  0.0000E+00  0.1780E+00
     -5.447  0.0000E+00  0.1780E+00
     -5.411  0.0000E+00  0.1780E+00
     -5.376  0.0000E+00  0.1780E+00
     -5.340  0.0000E+00  0.1780E+00
     -5.305  0.0000E+00  0.1780E+00
     -5.269  0.2777E-15  0.1780E+00
     -5.234  0.4603E-12  0.1780E+00
     -5.198  0.2838E-09  0.1780E+00
     -5.162  0.6517E-07  0.1780E+00
     -5.127  0.5615E-05  0.1780E+00
     -5.091  0.1834E-03  0.1780E+00
     -5.056  0.2296E-02  0.1781E+00
     -5.020  0.1116E-01  0.1785E+00
     -4.984  0.2128E-01  0.1792E+00
     -4.949  0.1607E-01  0.1798E+00
     -4.913  0.5902E-02  0.1800E+00
     -4.878  0.8143E-02  0.1803E+00
     -4.842  0.1930E-01  0.1810E+00
     -4.807  0.1927E-01  0.1817E+00
     -4.771  0.7589E-02  0.1820E+00
     -4.735  0.1179E-02  0.1820E+00
     -4.700  0.3426E-03  0.1820E+00
     -4.664  0.3006E-02  0.1821E+00
     -4.629  0.1286E-01  0.1826E+00
     -4.593  0.2162E-01  0.1833E+00
     -4.558  0.1433E-01  0.1839E+00
     -4.522  0.3733E-02  0.1840E+00
     -4.486  0.3786E-03  0.1840E+00
     -4.451  0.1478E-04  0.1840E+00
     -4.415  0.1069E-05  0.1840E+00
     -4.380  0.4294E-04  0.1840E+00
     -4.344  0.8268E-03  0.1840E+00
     -4.309  0.6147E-02  0.1842E+00
     -4.273  0.1785E-01  0.1849E+00
     -4.237  0.2041E-01  0.1856E+00
     -4.202  0.9199E-02  0.1859E+00
     -4.166  0.1624E-02  0.1860E+00
     -4.131  0.1158E-03  0.1860E+00
     -4.095  0.1624E-03  0.1860E+00
     -4.060  0.2087E-02  0.1861E+00
     -4.024  0.1059E-01  0.1865E+00
     -3.988  0.2108E-01  0.1872E+00
     -3.953  0.1654E-01  0.1878E+00
     -3.917  0.5108E-02  0.1880E+00
     -3.882  0.6153E-03  0.1880E+00
     -3.846  0.2857E-04  0.1880E+00
     -3.810  0.5053E-06  0.1880E+00
     -3.775  0.3367E-08  0.1880E+00
     -3.739  0.9217E-11  0.1880E+00
     -3.704  0.4737E-09  0.1880E+00
     -3.668  0.9984E-07  0.1880E+00
     -3.633  0.7903E-05  0.1880E+00
     -3.597  0.2373E-03  0.1880E+00
     -3.561  0.2735E-02  0.1881E+00
     -3.526  0.1225E-01  0.1885E+00
     -3.490  0.2154E-01  0.1893E+00
     -3.455  0.1493E-01  0.1898E+00
     -3.419  0.4070E-02  0.1900E+00
     -3.384  0.4322E-03  0.1900E+00
     -3.348  0.1767E-04  0.1900E+00
     -3.312  0.2745E-06  0.1900E+00
     -3.277  0.1605E-08  0.1900E+00
     -3.241  0.3503E-11  0.1900E+00
     -3.206  0.2834E-14  0.1900E+00
     -3.170  0.0000E+00  0.1900E+00
     -3.135  0.2465E-15  0.1900E+00
     -3.099  0.4164E-12  0.1900E+00
     -3.063  0.2604E-09  0.1900E+00
     -3.028  0.6069E-07  0.1900E+00
     -2.992  0.5312E-05  0.1900E+00
     -2.957  0.1769E-03  0.1900E+00
     -2.921  0.2289E-02  0.1901E+00
     -2.886  0.1204E-01  0.1905E+00
     -2.850  0.2837E-01  0.1915E+00
     -2.814  0.3505E-01  0.1928E+00
     -2.779  0.2449E-01  0.1936E+00
     -2.743  0.8616E-02  0.1940E+00
     -2.708  0.1317E-02  0.1940E+00
     -2.672  0.8167E-04  0.1940E+00
     -2.636  0.6262E-04  0.1940E+00
     -2.601  0.1284E-02  0.1940E+00
     -2.565  0.1048E-01  0.1944E+00
     -2.530  0.3343E-01  0.1956E+00
     -2.494  0.4210E-01  0.1971E+00
     -2.459  0.2243E-01  0.1979E+00
     -2.423  0.1375E-01  0.1984E+00
     -2.387  0.2578E-01  0.1993E+00
     -2.352  0.3455E-01  0.2005E+00
     -2.316  0.2731E-01  0.2015E+00
     -2.281  0.1140E-01  0.2019E+00
     -2.245  0.2116E-02  0.2020E+00
     -2.210  0.1587E-03  0.2020E+00
     -2.174  0.4615E-05  0.2020E+00
     -2.138  0.5099E-07  0.2020E+00
     -2.103  0.5451E-08  0.2020E+00
     -2.067  0.7265E-06  0.2020E+00
     -2.032  0.3797E-04  0.2020E+00
     -1.996  0.7566E-03  0.2020E+00
     -1.961  0.5817E-02  0.2022E+00
     -1.925  0.1746E-01  0.2029E+00
     -1.889  0.2064E-01  0.2036E+00
     -1.854  0.9616E-02  0.2039E+00
     -1.818  0.1759E-02  0.2040E+00
     -1.783  0.2420E-03  0.2040E+00
     -1.747  0.1699E-02  0.2041E+00
     -1.712  0.9561E-02  0.2044E+00
     -1.676  0.2250E-01  0.2052E+00
     -1.640  0.2792E-01  0.2062E+00
     -1.605  0.2694E-01  0.2072E+00
     -1.569  0.1808E-01  0.2078E+00
     -1.534  0.9480E-02  0.2081E+00
     -1.498  0.1565E-01  0.2087E+00
     -1.463  0.2156E-01  0.2095E+00
     -1.427  0.1219E-01  0.2099E+00
     -1.391  0.2711E-02  0.2100E+00
     -1.356  0.2343E-03  0.2100E+00
     -1.320  0.7771E-05  0.2100E+00
     -1.285  0.9776E-07  0.2100E+00
     -1.249  0.4618E-09  0.2100E+00
     -1.213  0.8130E-12  0.2100E+00
     -1.178  0.2066E-14  0.2100E+00
     -1.142  0.2055E-11  0.2100E+00
     -1.107  0.1019E-08  0.2100E+00
     -1.071  0.1886E-06  0.2100E+00
     -1.036  0.1312E-04  0.2100E+00
     -1.000  0.3467E-03  0.2100E+00
     -0.964  0.3523E-02  0.2101E+00
     -0.929  0.1396E-01  0.2106E+00
     -0.893  0.2230E-01  0.2114E+00
     -0.858  0.1861E-01  0.2121E+00
     -0.822  0.2058E-01  0.2128E+00
     -0.787  0.2721E-01  0.2138E+00
     -0.751  0.3577E-01  0.2151E+00
     -0.715  0.4625E-01  0.2167E+00
     -0.680  0.3722E-01  0.2180E+00
     -0.644  0.2745E-01  0.2190E+00
     -0.609  0.1964E-01  0.2197E+00
     -0.573  0.7134E-02  0.2200E+00
     -0.538  0.1353E-02  0.2200E+00
     -0.502  0.3322E-02  0.2201E+00
     -0.466  0.1341E-01  0.2206E+00
     -0.431  0.2173E-01  0.2214E+00
     -0.395  0.1511E-01  0.2219E+00
     -0.360  0.1163E-01  0.2223E+00
     -0.324  0.2008E-01  0.2230E+00
     -0.289  0.1878E-01  0.2237E+00
     -0.253  0.7025E-02  0.2240E+00
     -0.217  0.1028E-02  0.2240E+00
     -0.182  0.5818E-04  0.2240E+00
     -0.146  0.1256E-05  0.2240E+00
     -0.111  0.1024E-07  0.2240E+00
     -0.075  0.3125E-10  0.2240E+00
     -0.039  0.3543E-13  0.2240E+00
     -0.004  0.1248E-16  0.2240E+00
      0.032  0.0000E+00  0.2240E+00
      0.067  0.0000E+00  0.2240E+00
      0.103  0.0000E+00  0.2240E+00
      0.138  0.0000E+00  0.2240E+00
      0.174  0.0000E+00  0.2240E+00
