   17   17 1000    1
  0.1049752E+04  0.2637762E-08  0.2673697E-08  0.2530391E-08  0.5000000E-15
  1.000000000000000E-004
  CAR 
 BLACK                                   
    187      1    112
 
  0.0000000E+00  0.0000000E+00  0.0000000E+00  0.1000000E+01
    1       -9.998683   1.000000
    2       -9.652317   1.000000
    3       -9.592705   1.000000
    4       -9.585183   1.000000
    5       -9.485570   1.000000
    6       -9.456993   1.000000
    7       -9.036147   1.000000
    8       -8.990613   1.000000
    9       -8.918198   1.000000
   10       -8.896567   1.000000
   11       -8.884119   1.000000
   12       -8.848921   1.000000
   13       -8.803061   1.000000
   14       -8.800535   1.000000
   15       -8.740350   1.000000
   16       -8.731914   1.000000
   17       -8.698018   1.000000
   18       -8.681687   1.000000
   19       -8.647227   1.000000
   20       -8.641950   1.000000
   21       -8.635469   1.000000
   22       -8.617097   1.000000
   23       -8.556863   1.000000
   24       -8.536452   1.000000
   25       -8.513220   1.000000
   26       -8.468150   1.000000
   27       -8.390300   1.000000
   28       -8.388196   1.000000
   29       -8.306553   1.000000
   30       -8.254732   1.000000
   31       -8.254183   1.000000
   32       -8.246363   1.000000
   33       -8.212266   1.000000
   34       -8.208443   1.000000
   35       -8.081630   1.000000
   36       -8.080525   1.000000
   37       -8.056494   1.000000
   38       -8.001043   1.000000
   39       -7.997568   1.000000
   40       -7.983978   1.000000
   41       -7.932084   1.000000
   42       -7.881332   1.000000
   43       -7.860090   1.000000
   44       -7.840501   1.000000
   45       -7.804601   1.000000
   46       -7.649624   1.000000
   47       -7.621358   1.000000
   48       -7.568406   1.000000
   49       -7.530616   1.000000
   50       -7.494246   1.000000
   51       -7.484801   1.000000
   52       -7.467829   1.000000
   53       -7.433175   1.000000
   54       -7.429899   1.000000
   55       -7.396223   1.000000
   56       -7.383874   1.000000
   57       -7.376127   1.000000
   58       -7.348298   1.000000
   59       -7.337775   1.000000
   60       -7.322191   1.000000
   61       -7.298229   1.000000
   62       -7.272376   1.000000
   63       -7.266694   1.000000
   64       -7.241190   1.000000
   65       -7.224386   1.000000
   66       -7.218022   1.000000
   67       -7.175985   1.000000
   68       -7.169257   1.000000
   69       -7.164210   1.000000
   70       -7.140141   1.000000
   71       -7.129001   1.000000
   72       -7.098182   1.000000
   73       -7.066121   1.000000
   74       -7.060519   1.000000
   75       -7.055897   1.000000
   76       -7.032171   1.000000
   77       -6.966914   1.000000
   78       -6.934161   1.000000
   79       -6.910459   1.000000
   80       -6.903705   1.000000
   81       -6.885678   1.000000
   82       -6.838953   1.000000
   83       -6.794865   1.000000
   84       -6.734495   1.000000
   85       -6.725615   1.000000
   86       -6.688580   1.000000
   87       -6.629308   1.000000
   88       -6.437165   1.000000
   89       -6.188748   1.000000
   90       -4.995387   1.000000
   91       -4.842191   1.000000
   92       -4.608871   1.000000
   93       -4.267843   1.000000
   94       -3.997637   0.500000
   95       -3.504312   0.000000
   96       -2.860341   0.000000
   97       -2.812868   0.000000
   98       -2.522239   0.000000
   99       -2.519841   0.000000
  100       -2.392228   0.000000
  101       -2.342744   0.000000
  102       -1.918594   0.000000
  103       -1.681738   0.000000
  104       -1.613114   0.000000
  105       -1.484229   0.000000
  106       -0.912019   0.000000
  107       -0.813779   0.000000
  108       -0.734546   0.000000
  109       -0.726795   0.000000
  110       -0.645987   0.000000
  111       -0.448078   0.000000
  112       -0.326030   0.000000
