       N       E                     dE             d eps       ncg     rms          rms(c)
DAV:   1     0.162383548577E+04    0.16238E+04   -0.27002E+04   224   0.733E+02
DAV:   2     0.872733482812E+03   -0.75110E+03   -0.69118E+03   416   0.838E+01
DAV:   3     0.172105325750E+03   -0.70063E+03   -0.66241E+03   360   0.923E+01
DAV:   4    -0.186401751116E+02   -0.19075E+03   -0.17425E+03   288   0.785E+01
DAV:   5    -0.373225989565E+02   -0.18682E+02   -0.18426E+02   240   0.276E+01    0.731E+00
RMM:   6    -0.354161554295E+02    0.19064E+01   -0.10202E+01   224   0.103E+01    0.213E+00
RMM:   7    -0.352334530534E+02    0.18270E+00   -0.11269E+00   224   0.274E+00    0.917E-01
RMM:   8    -0.351993142914E+02    0.34139E-01   -0.93244E-02   225   0.803E-01    0.352E-01
RMM:   9    -0.351934803951E+02    0.58339E-02   -0.13125E-02   226   0.334E-01    0.122E-01
RMM:  10    -0.351934603771E+02    0.20018E-04   -0.17191E-03   224   0.108E-01    0.753E-02
RMM:  11    -0.351949970573E+02   -0.15367E-02   -0.23294E-03   224   0.956E-02    0.490E-02
RMM:  12    -0.351971533312E+02   -0.21563E-02   -0.10869E-03   224   0.976E-02    0.249E-02
RMM:  13    -0.352002680256E+02   -0.31147E-02   -0.49100E-04   224   0.336E-02    0.127E-02
RMM:  14    -0.352021240126E+02   -0.18560E-02   -0.12073E-04   174   0.221E-02    0.874E-03
RMM:  15    -0.352033179680E+02   -0.11940E-02   -0.96869E-05   144   0.233E-02    0.738E-03
RMM:  16    -0.352038321267E+02   -0.51416E-03   -0.32743E-05   136   0.223E-02    0.484E-03
RMM:  17    -0.352042102963E+02   -0.37817E-03   -0.20189E-05   136   0.134E-02    0.173E-03
RMM:  18    -0.352043482874E+02   -0.13799E-03   -0.62097E-06   135   0.569E-03    0.147E-03
RMM:  19    -0.352044558771E+02   -0.10759E-03   -0.56410E-06   135   0.517E-03    0.919E-04
RMM:  20    -0.352044921962E+02   -0.36319E-04   -0.13701E-06    81   0.265E-03    0.307E-04
RMM:  21    -0.352045117833E+02   -0.19587E-04   -0.65821E-07    68   0.197E-03    0.159E-04
RMM:  22    -0.352045173174E+02   -0.55341E-05   -0.21831E-08    33   0.134E-03
   1 F= -.35204517E+02 E0= -.35190413E+02  d E =-.352045E+02
       N       E                     dE             d eps       ncg     rms          rms(c)
DAV:   1    -0.352197267759E+02   -0.15215E-01   -0.80806E+00   224   0.832E+00    0.878E-02
RMM:   2    -0.352230292395E+02   -0.33025E-02   -0.35829E-02   224   0.633E-01    0.645E-02
RMM:   3    -0.352230040598E+02    0.25180E-04   -0.74529E-04   225   0.845E-02    0.575E-02
RMM:   4    -0.352229157172E+02    0.88343E-04   -0.25870E-04   224   0.444E-02    0.195E-02
RMM:   5    -0.352229431826E+02   -0.27465E-04   -0.10807E-04   224   0.310E-02    0.128E-02
RMM:   6    -0.352229327210E+02    0.10462E-04   -0.26835E-05   135   0.143E-02    0.211E-03
RMM:   7    -0.352229360093E+02   -0.32883E-05   -0.21827E-06   121   0.611E-03
   2 F= -.35222936E+02 E0= -.35208831E+02  d E =-.184187E-01
       N       E                     dE             d eps       ncg     rms          rms(c)
DAV:   1    -0.352310525149E+02   -0.81198E-02   -0.21492E+01   224   0.136E+01    0.146E-01
RMM:   2    -0.352398915495E+02   -0.88390E-02   -0.96345E-02   224   0.104E+00    0.105E-01
RMM:   3    -0.352398047925E+02    0.86757E-04   -0.20004E-03   225   0.139E-01    0.938E-02
RMM:   4    -0.352395340924E+02    0.27070E-03   -0.68760E-04   224   0.728E-02    0.322E-02
RMM:   5    -0.352395811297E+02   -0.47037E-04   -0.27542E-04   224   0.496E-02    0.197E-02
RMM:   6    -0.352395620408E+02    0.19089E-04   -0.69952E-05   217   0.224E-02    0.287E-03
RMM:   7    -0.352395705145E+02   -0.84738E-05   -0.11872E-06   112   0.316E-03
   3 F= -.35239571E+02 E0= -.35225466E+02  d E =-.350532E-01
       N       E                     dE             d eps       ncg     rms          rms(c)
DAV:   1    -0.352396733206E+02   -0.11128E-03   -0.51671E+00   224   0.665E+00    0.700E-02
RMM:   2    -0.352417854915E+02   -0.21122E-02   -0.22796E-02   224   0.506E-01    0.521E-02
RMM:   3    -0.352417700170E+02    0.15474E-04   -0.47813E-04   225   0.678E-02    0.464E-02
RMM:   4    -0.352417174064E+02    0.52611E-04   -0.16797E-04   224   0.358E-02    0.158E-02
RMM:   5    -0.352417432925E+02   -0.25886E-04   -0.70456E-05   215   0.250E-02    0.104E-02
RMM:   6    -0.352417378423E+02    0.54502E-05   -0.18083E-05   129   0.118E-02
   4 F= -.35241738E+02 E0= -.35227633E+02  d E =-.372205E-01
       N       E                     dE             d eps       ncg     rms          rms(c)
DAV:   1    -0.352436034766E+02   -0.18602E-02   -0.19936E+00   240   0.411E+00    0.414E-02
RMM:   2    -0.352444247758E+02   -0.82130E-03   -0.88701E-03   224   0.322E-01    0.326E-02
RMM:   3    -0.352444173466E+02    0.74292E-05   -0.17699E-04   226   0.414E-02    0.298E-02
RMM:   4    -0.352443917643E+02    0.25582E-04   -0.90578E-05   223   0.266E-02    0.752E-03
RMM:   5    -0.352443977990E+02   -0.60346E-05   -0.16577E-05   124   0.124E-02
   5 F= -.35244398E+02 E0= -.35230293E+02  d E =-.265996E-02
       N       E                     dE             d eps       ncg     rms          rms(c)
DAV:   1    -0.352424103248E+02    0.19814E-02   -0.99137E+00   224   0.917E+00    0.951E-02
RMM:   2    -0.352465049596E+02   -0.40946E-02   -0.44614E-02   224   0.726E-01    0.731E-02
RMM:   3    -0.352464575601E+02    0.47399E-04   -0.88791E-04   226   0.928E-02    0.665E-02
RMM:   4    -0.352463070290E+02    0.15053E-03   -0.38577E-04   224   0.553E-02    0.201E-02
RMM:   5    -0.352463196451E+02   -0.12616E-04   -0.11711E-04   224   0.316E-02    0.126E-02
RMM:   6    -0.352463127522E+02    0.68930E-05   -0.25963E-05   133   0.136E-02
   6 F= -.35246313E+02 E0= -.35232208E+02  d E =-.457491E-02
       N       E                     dE             d eps       ncg     rms          rms(c)
DAV:   1    -0.352462583355E+02    0.61310E-04   -0.27272E-01   240   0.152E+00    0.143E-02
RMM:   2    -0.352463703295E+02   -0.11199E-03   -0.11986E-03   224   0.119E-01    0.124E-02
RMM:   3    -0.352463687121E+02    0.16174E-05   -0.20258E-05   121   0.153E-02
   7 F= -.35246369E+02 E0= -.35232264E+02  d E =-.463087E-02
       N       E                     dE             d eps       ncg     rms          rms(c)
DAV:   1    -0.352473860641E+02   -0.10157E-02   -0.22797E+00   224   0.441E+00    0.360E-02
RMM:   2    -0.352482984082E+02   -0.91234E-03   -0.94618E-03   224   0.337E-01    0.353E-02
RMM:   3    -0.352482857600E+02    0.12648E-04   -0.19951E-04   229   0.440E-02    0.335E-02
RMM:   4    -0.352482407878E+02    0.44972E-04   -0.56143E-05   197   0.214E-02    0.147E-02
RMM:   5    -0.352482366401E+02    0.41477E-05   -0.88044E-05   223   0.266E-02
   8 F= -.35248237E+02 E0= -.35234132E+02  d E =-.186793E-02
       N       E                     dE             d eps       ncg     rms          rms(c)
DAV:   1    -0.352434024401E+02    0.48383E-02   -0.20546E+01   224   0.133E+01    0.116E-01
RMM:   2    -0.352516893266E+02   -0.82869E-02   -0.86267E-02   224   0.102E+00    0.106E-01
RMM:   3    -0.352515683725E+02    0.12095E-03   -0.17771E-03   229   0.132E-01    0.994E-02
RMM:   4    -0.352511772071E+02    0.39117E-03   -0.48979E-04   224   0.632E-02    0.445E-02
RMM:   5    -0.352511373603E+02    0.39847E-04   -0.72670E-04   224   0.766E-02    0.241E-02
RMM:   6    -0.352511172358E+02    0.20124E-04   -0.42913E-05   165   0.195E-02    0.640E-03
RMM:   7    -0.352511194671E+02   -0.22313E-05   -0.58827E-06   122   0.844E-03
   9 F= -.35251119E+02 E0= -.35237015E+02  d E =-.475075E-02
       N       E                     dE             d eps       ncg     rms          rms(c)
DAV:   1    -0.352512412789E+02   -0.12404E-03   -0.53894E+00   224   0.675E+00    0.559E-02
RMM:   2    -0.352533584999E+02   -0.21172E-02   -0.21934E-02   224   0.514E-01    0.556E-02
RMM:   3    -0.352533267103E+02    0.31790E-04   -0.44646E-04   228   0.657E-02    0.523E-02
RMM:   4    -0.352532163823E+02    0.11033E-03   -0.17348E-04   224   0.374E-02    0.195E-02
RMM:   5    -0.352532200510E+02   -0.36686E-05   -0.17291E-04   224   0.372E-02    0.139E-02
RMM:   6    -0.352532147953E+02    0.52557E-05   -0.14412E-05   123   0.111E-02
  10 F= -.35253215E+02 E0= -.35239110E+02  d E =-.209533E-02
       N       E                     dE             d eps       ncg     rms          rms(c)
DAV:   1    -0.352531766098E+02    0.43441E-04   -0.23173E+00   224   0.442E+00    0.367E-02
RMM:   2    -0.352540857979E+02   -0.90919E-03   -0.94096E-03   224   0.336E-01    0.360E-02
RMM:   3    -0.352540731847E+02    0.12613E-04   -0.19133E-04   228   0.430E-02    0.338E-02
RMM:   4    -0.352540280266E+02    0.45158E-04   -0.77776E-05   218   0.251E-02    0.119E-02
RMM:   5    -0.352540322155E+02   -0.41889E-05   -0.68164E-05   210   0.234E-02
  11 F= -.35254032E+02 E0= -.35239927E+02  d E =-.291275E-02
       N       E                     dE             d eps       ncg     rms          rms(c)
DAV:   1    -0.352508180474E+02    0.32100E-02   -0.92667E+00   224   0.885E+00    0.763E-02
RMM:   2    -0.352544842222E+02   -0.36662E-02   -0.38087E-02   224   0.679E-01    0.720E-02
RMM:   3    -0.352544296570E+02    0.54565E-04   -0.76959E-04   227   0.865E-02    0.671E-02
RMM:   4    -0.352542472715E+02    0.18239E-03   -0.27678E-04   224   0.475E-02    0.259E-02
RMM:   5    -0.352542470453E+02    0.22625E-06   -0.28486E-04   224   0.479E-02    0.170E-02
RMM:   6    -0.352542375256E+02    0.95196E-05   -0.21196E-05   130   0.136E-02
  12 F= -.35254238E+02 E0= -.35240133E+02  d E =-.311806E-02
       N       E                     dE             d eps       ncg     rms          rms(c)
DAV:   1    -0.352537984060E+02    0.44864E-03   -0.16081E+00   224   0.369E+00    0.287E-02
RMM:   2    -0.352544262520E+02   -0.62785E-03   -0.64633E-03   224   0.278E-01    0.303E-02
RMM:   3    -0.352544185496E+02    0.77024E-05   -0.13278E-04   225   0.359E-02    0.288E-02
RMM:   4    -0.352543867841E+02    0.31765E-04   -0.59564E-05   202   0.220E-02    0.948E-03
RMM:   5    -0.352543912757E+02   -0.44916E-05   -0.48055E-05   167   0.199E-02
  13 F= -.35254391E+02 E0= -.35240287E+02  d E =-.327181E-02
       N       E                     dE             d eps       ncg     rms          rms(c)
DAV:   1    -0.352535290165E+02    0.85777E-03   -0.62538E+00   224   0.733E+00    0.647E-02
RMM:   2    -0.352560505291E+02   -0.25215E-02   -0.26471E-02   224   0.559E-01    0.598E-02
RMM:   3    -0.352560147909E+02    0.35738E-04   -0.55816E-04   227   0.736E-02    0.560E-02
RMM:   4    -0.352558852474E+02    0.12954E-03   -0.20827E-04   224   0.415E-02    0.199E-02
RMM:   5    -0.352558856788E+02   -0.43139E-06   -0.17110E-04   224   0.374E-02    0.138E-02
RMM:   6    -0.352558783470E+02    0.73319E-05   -0.18677E-05   124   0.126E-02
  14 F= -.35255878E+02 E0= -.35241774E+02  d E =-.148707E-02
       N       E                     dE             d eps       ncg     rms          rms(c)
DAV:   1    -0.352558975633E+02   -0.11884E-04   -0.72931E-01   224   0.250E+00    0.227E-02
RMM:   2    -0.352561905789E+02   -0.29302E-03   -0.30858E-03   224   0.190E-01    0.200E-02
RMM:   3    -0.352561865515E+02    0.40274E-05   -0.62726E-05   197   0.250E-02
  15 F= -.35256187E+02 E0= -.35242082E+02  d E =-.179528E-02
       N       E                     dE             d eps       ncg     rms          rms(c)
DAV:   1    -0.352553364352E+02    0.85414E-03   -0.29205E+00   224   0.501E+00    0.453E-02
RMM:   2    -0.352564989669E+02   -0.11625E-02   -0.12262E-02   224   0.380E-01    0.428E-02
RMM:   3    -0.352564800797E+02    0.18887E-04   -0.26024E-04   228   0.501E-02    0.398E-02
RMM:   4    -0.352564146022E+02    0.65477E-04   -0.13714E-04   224   0.337E-02    0.109E-02
RMM:   5    -0.352564194727E+02   -0.48704E-05   -0.63128E-05   209   0.229E-02
  16 F= -.35256419E+02 E0= -.35242315E+02  d E =-.202820E-02
       N       E                     dE             d eps       ncg     rms          rms(c)
DAV:   1    -0.352549776751E+02    0.14369E-02   -0.66497E+00   224   0.756E+00    0.632E-02
RMM:   2    -0.352576884566E+02   -0.27108E-02   -0.28113E-02   224   0.579E-01    0.607E-02
RMM:   3    -0.352576584516E+02    0.30005E-04   -0.58913E-04   228   0.755E-02    0.573E-02
RMM:   4    -0.352575285225E+02    0.12993E-03   -0.20319E-04   224   0.407E-02    0.218E-02
RMM:   5    -0.352575328877E+02   -0.43652E-05   -0.21218E-04   224   0.417E-02    0.158E-02
RMM:   6    -0.352575239249E+02    0.89627E-05   -0.19336E-05   126   0.129E-02
  17 F= -.35257524E+02 E0= -.35243419E+02  d E =-.110445E-02
       N       E                     dE             d eps       ncg     rms          rms(c)
DAV:   1    -0.352573745473E+02    0.15834E-03   -0.73407E-01   240   0.251E+00    0.213E-02
RMM:   2    -0.352576729550E+02   -0.29841E-03   -0.30941E-03   224   0.191E-01    0.198E-02
RMM:   3    -0.352576701575E+02    0.27975E-05   -0.62352E-05   192   0.249E-02
  18 F= -.35257670E+02 E0= -.35243565E+02  d E =-.125068E-02
       N       E                     dE             d eps       ncg     rms          rms(c)
DAV:   1    -0.352575461566E+02    0.12680E-03   -0.15196E+00   224   0.362E+00    0.316E-02
RMM:   2    -0.352581724252E+02   -0.62627E-03   -0.66312E-03   224   0.283E-01    0.285E-02
RMM:   3    -0.352581677055E+02    0.47197E-05   -0.13757E-04   226   0.364E-02    0.266E-02
RMM:   4    -0.352581449396E+02    0.22766E-04   -0.64378E-05   221   0.223E-02    0.733E-03
RMM:   5    -0.352581493660E+02   -0.44264E-05   -0.21893E-05   122   0.140E-02
  19 F= -.35258149E+02 E0= -.35244045E+02  d E =-.479208E-03
       N       E                     dE             d eps       ncg     rms          rms(c)
DAV:   1    -0.352580836766E+02    0.61263E-04   -0.12653E-01   240   0.104E+00    0.968E-03
RMM:   2    -0.352581363196E+02   -0.52643E-04   -0.55498E-04   224   0.816E-02    0.783E-03
RMM:   3    -0.352581362996E+02    0.19951E-07   -0.91394E-06   115   0.104E-02
  20 F= -.35258136E+02 E0= -.35244032E+02  d E =-.466142E-03
       N       E                     dE             d eps       ncg     rms          rms(c)
DAV:   1    -0.352581363205E+02   -0.91677E-09   -0.41498E-02   224   0.597E-01    0.518E-03
RMM:   2    -0.352581549428E+02   -0.18622E-04   -0.18835E-04   222   0.474E-02    0.385E-03
RMM:   3    -0.352581551347E+02   -0.19197E-06   -0.34295E-06   117   0.637E-03
  21 F= -.35258155E+02 E0= -.35244050E+02  d E =-.484977E-03
       N       E                     dE             d eps       ncg     rms          rms(c)
DAV:   1    -0.352579457032E+02    0.20924E-03   -0.11373E+00   224   0.312E+00    0.270E-02
RMM:   2    -0.352584181425E+02   -0.47244E-03   -0.49612E-03   224   0.242E-01    0.229E-02
RMM:   3    -0.352584151028E+02    0.30398E-05   -0.10547E-04   224   0.317E-02    0.216E-02
RMM:   4    -0.352583977181E+02    0.17385E-04   -0.27029E-05   132   0.149E-02    0.876E-03
RMM:   5    -0.352583978505E+02   -0.13241E-06   -0.30647E-05   129   0.165E-02
  22 F= -.35258398E+02 E0= -.35244293E+02  d E =-.242716E-03
       N       E                     dE             d eps       ncg     rms          rms(c)
DAV:   1    -0.352582904718E+02    0.10725E-03   -0.19458E-01   240   0.129E+00    0.131E-02
RMM:   2    -0.352583710985E+02   -0.80627E-04   -0.86919E-04   224   0.101E-01    0.879E-03
RMM:   3    -0.352583706547E+02    0.44385E-06   -0.15141E-05   114   0.132E-02
  23 F= -.35258371E+02 E0= -.35244266E+02  d E =-.215520E-03
       N       E                     dE             d eps       ncg     rms          rms(c)
DAV:   1    -0.352583595559E+02    0.11543E-04   -0.83571E-02   224   0.844E-01    0.740E-03
RMM:   2    -0.352583963533E+02   -0.36797E-04   -0.37617E-04   224   0.663E-02    0.552E-03
RMM:   3    -0.352583963870E+02   -0.33746E-07   -0.70079E-06   116   0.903E-03
  24 F= -.35258396E+02 E0= -.35244292E+02  d E =-.241252E-03
       N       E                     dE             d eps       ncg     rms          rms(c)
DAV:   1    -0.352583125444E+02    0.83809E-04   -0.43203E-01   224   0.192E+00    0.176E-02
RMM:   2    -0.352584921101E+02   -0.17957E-03   -0.19048E-03   224   0.150E-01    0.139E-02
RMM:   3    -0.352584910961E+02    0.10140E-05   -0.34351E-05   131   0.196E-02
  25 F= -.35258491E+02 E0= -.35244386E+02  d E =-.947091E-04
       N       E                     dE             d eps       ncg     rms          rms(c)
DAV:   1    -0.352584779621E+02    0.14148E-04   -0.20675E-02   224   0.418E-01    0.571E-03
RMM:   2    -0.352584877076E+02   -0.97456E-05   -0.10112E-04   207   0.341E-02    0.167E-03
RMM:   3    -0.352584879399E+02   -0.23228E-06   -0.21345E-06   114   0.496E-03
  26 F= -.35258488E+02 E0= -.35244383E+02  d E =-.915529E-04
       N       E                     dE             d eps       ncg     rms          rms(c)
DAV:   1    -0.352584883475E+02   -0.63991E-06   -0.21076E-03   240   0.134E-01    0.194E-03
RMM:   2    -0.352584892658E+02   -0.91824E-06   -0.91864E-06   114   0.109E-02
  27 F= -.35258489E+02 E0= -.35244385E+02  d E =-.928788E-04
       N       E                     dE             d eps       ncg     rms          rms(c)
DAV:   1    -0.352584561937E+02    0.32154E-04   -0.22148E-01   224   0.138E+00    0.114E-02
RMM:   2    -0.352585463406E+02   -0.90147E-04   -0.93240E-04   224   0.106E-01    0.105E-02
RMM:   3    -0.352585458281E+02    0.51251E-06   -0.15637E-05   118   0.136E-02
  28 F= -.35258546E+02 E0= -.35244441E+02  d E =-.565623E-04
