 vasp.5.4.4.18Apr17-6-g9f103f2a35 (build Jun 19 2019 11:58:18) complex          
  
 executed on             LinuxIFC date 2022.07.17  11:57:05
 running on   32 total cores
 distrk:  each k-point on   32 cores,    1 groups
 distr:  one band on NCORES_PER_BAND=  16 cores,    2 groups


--------------------------------------------------------------------------------------------------------


 INCAR:
 POTCAR:   PAW_PBE Ag 06Sep2000                   

 ----------------------------------------------------------------------------- 
|                                                                             |
|           W    W    AA    RRRRR   N    N  II  N    N   GGGG   !!!           |
|           W    W   A  A   R    R  NN   N  II  NN   N  G    G  !!!           |
|           W    W  A    A  R    R  N N  N  II  N N  N  G       !!!           |
|           W WW W  AAAAAA  RRRRR   N  N N  II  N  N N  G  GGG   !            |
|           WW  WW  A    A  R   R   N   NN  II  N   NN  G    G                |
|           W    W  A    A  R    R  N    N  II  N    N   GGGG   !!!           |
|                                                                             |
|      For optimal performance we recommend to set                            |
|        NCORE= 4 - approx SQRT( number of cores)                             |
|      NCORE specifies how many cores store one orbital (NPAR=cpu/NCORE).     |
|      This setting can  greatly improve the performance of VASP for DFT.     |
|      The default,   NCORE=1            might be grossly inefficient         |
|      on modern multi-core architectures or massively parallel machines.     |
|      Do your own testing !!!!                                               |
|      Unfortunately you need to use the default for GW and RPA calculations. |
|      (for HF NCORE is supported but not extensively tested yet)             |
|                                                                             |
 ----------------------------------------------------------------------------- 

 POTCAR:   PAW_PBE Ag 06Sep2000                   
   VRHFIN =Ag : s1 d10                                                          
   LEXCH  = PE                                                                  
   EATOM  =  1037.4134 eV,   76.2477 Ry                                         
                                                                                
   TITEL  = PAW_PBE Ag 06Sep2000                                                
   LULTRA =        F    use ultrasoft PP ?                                      
   IUNSCR =        1    unscreen: 0-lin 1-nonlin 2-no                           
   RPACOR =    2.000    partial core radius                                     
   POMASS =  107.868; ZVAL   =   11.000    mass and valenz                      
   RCORE  =    2.400    outmost cutoff radius                                   
   RWIGS  =    2.840; RWIGS  =    1.503    wigner-seitz radius (au A)           
   ENMAX  =  249.846; ENMIN  =  187.385 eV                                      
   RCLOC  =    1.962    cutoff for local pot                                    
   LCOR   =        T    correct aug charges                                     
   LPAW   =        T    paw PP                                                  
   EAUG   =  412.496                                                            
   DEXC   =    -.047                                                            
   RMAX   =    2.917    core radius for proj-oper                               
   RAUG   =    1.300    factor for augmentation sphere                          
   RDEP   =    2.416    radius for radial grids                                 
   QCUT   =   -4.285; QGAM   =    8.570    optimization parameters              
                                                                                
   Description                                                                  
     l     E      TYP  RCUT    TYP  RCUT                                        
     2   .000     23  2.400                                                     
     2   .000     23  2.400                                                     
     0   .000     23  2.400                                                     
     0   .000     23  2.400                                                     
     1  -.200     23  2.400                                                     
     1  1.500     23  2.400                                                     
     3   .000      7   .000                                                     
  local pseudopotential read in
  partial core-charges read in
  atomic valenz-charges read in
  non local Contribution for L=           2  read in
    real space projection operators read in
  non local Contribution for L=           2  read in
    real space projection operators read in
  non local Contribution for L=           0  read in
    real space projection operators read in
  non local Contribution for L=           0  read in
    real space projection operators read in
  non local Contribution for L=           1  read in
    real space projection operators read in
  non local Contribution for L=           1  read in
    real space projection operators read in
    PAW grid and wavefunctions read in
 
   number of l-projection  operators is LMAX  =           6
   number of lm-projection operators is LMMAX =          18
 
 Optimization of the real space projectors (new method)

 maximal supplied QI-value         = 15.68
 optimisation between [QCUT,QGAM] = [ 10.20, 20.39] = [ 29.11,116.42] Ry 
 Optimized for a Real-space Cutoff    1.42 Angstroem

   l    n(q)    QCUT    max X(q) W(low)/X(q) W(high)/X(q)  e(spline) 
   2      8    10.195     3.831    0.87E-04    0.50E-04    0.39E-07
   2      8    10.195    20.184    0.33E-03    0.72E-03    0.15E-06
   0      9    10.195    16.770    0.37E-04    0.52E-05    0.77E-08
   0      9    10.195    80.708    0.39E-03    0.16E-03    0.65E-07
   1      8    10.195     6.696    0.51E-04    0.95E-04    0.27E-07
   1      8    10.195     8.973    0.13E-03    0.22E-03    0.14E-06
 PAW_PBE Ag 06Sep2000                   :
 energy of atom  1       EATOM=-1037.4134
 kinetic energy error for atom=    0.0091 (will be added to EATOM!!)
 
 
 POSCAR: 17-c1-1-39.xyz                          
  positions in cartesian coordinates
  No initial velocities read in
 exchange correlation table for  LEXCH =        8
   RHO(1)=    0.500       N(1)  =     2000
   RHO(2)=  100.500       N(2)  =     4000
 


--------------------------------------------------------------------------------------------------------


 ion  position               nearest neighbor table
   1  0.582  0.532  0.561-   6 2.78  17 2.84  13 2.94  14 2.94   9 2.94   8 3.04  11 3.20
   2  0.672  0.762  0.614-  15 2.78  16 2.83   7 2.84   3 2.84
   3  0.605  0.736  0.531-   4 2.81   7 2.81   8 2.82   2 2.84  16 2.93
   4  0.513  0.689  0.559-   3 2.81  11 2.81  16 2.82   6 2.84   8 2.91
   5  0.596  0.633  0.718-  17 2.82  16 2.82  12 2.85  11 2.87  13 2.91  15 2.95
   6  0.499  0.588  0.529-   1 2.78  11 2.83   8 2.83   4 2.84
   7  0.690  0.675  0.551-   3 2.81   2 2.84  17 2.85  14 2.87  10 2.93   8 2.97  15 3.19
   8  0.594  0.633  0.508-   3 2.82  14 2.83   6 2.83   4 2.91   7 2.97  17 3.00   1 3.04
   9  0.678  0.510  0.616-  14 2.85  13 2.89  17 2.90  10 2.91  12 2.94   1 2.94
  10  0.741  0.599  0.615-  17 2.84  12 2.89  14 2.90   9 2.91   7 2.93  15 2.95
  11  0.526  0.613  0.634-   4 2.81   6 2.83  17 2.86   5 2.87  13 2.93  16 2.95   1 3.20
  12  0.685  0.573  0.711-   5 2.85  10 2.89  17 2.90  13 2.93   9 2.94  15 2.94
  13  0.588  0.532  0.677-  17 2.84   9 2.89   5 2.91  12 2.93  11 2.93   1 2.94
  14  0.680  0.571  0.525-  17 2.82   8 2.83   9 2.85   7 2.87  10 2.90   1 2.94
  15  0.690  0.679  0.677-   2 2.78  17 2.83  12 2.94   5 2.95  10 2.95  16 3.06   7 3.19
  16  0.583  0.708  0.640-   4 2.82   5 2.82   2 2.83   3 2.93  11 2.95  17 3.01  15 3.06
  17  0.633  0.609  0.617-   5 2.82  14 2.82  15 2.83  13 2.84  10 2.84   1 2.84   7 2.85  11 2.86
                            12 2.90   9 2.90   8 3.00  16 3.01
 
  LATTYP: Found a simple orthorhombic cell.
 ALAT       =    25.3039094780
 B/A-ratio  =     1.0424326305
 C/A-ratio  =     1.0566340304
  
  Lattice vectors:
  
 A1 = (   0.0000000000,   0.0000000000,  25.3039094780)
 A2 = ( -26.3776209190,   0.0000000000,   0.0000000000)
 A3 = (   0.0000000000, -26.7369718570,   0.0000000000)


Analysis of symmetry for initial positions (statically):
=====================================================================
 Subroutine PRICEL returns:
 Original cell was already a primitive cell.
 

 Routine SETGRP: Setting up the symmetry group for a 
 simple orthorhombic supercell.


 Subroutine GETGRP returns: Found  1 space group operations
 (whereof  1 operations were pure point group operations)
 out of a pool of  8 trial point group operations.


The static configuration has the point symmetry C_1 .


Analysis of symmetry for dynamics (positions and initial velocities):
=====================================================================
 Subroutine PRICEL returns:
 Original cell was already a primitive cell.
 

 Routine SETGRP: Setting up the symmetry group for a 
 simple orthorhombic supercell.


 Subroutine GETGRP returns: Found  1 space group operations
 (whereof  1 operations were pure point group operations)
 out of a pool of  8 trial point group operations.


The dynamic configuration has the point symmetry C_1 .


 Subroutine INISYM returns: Found  1 space group operations
 (whereof  1 operations are pure point group operations),
 and found     1 'primitive' translations

 
 
 KPOINTS: Monkhorst Pack                          

Automatic generation of k-mesh.
Space group operators:
 irot       det(A)        alpha          n_x          n_y          n_z        tau_x        tau_y        tau_z
    1     1.000000     0.000000     1.000000     0.000000     0.000000     0.000000     0.000000     0.000000
 
 Subroutine IBZKPT returns following result:
 ===========================================
 
 Found      1 irreducible k-points:
 
 Following reciprocal coordinates:
            Coordinates               Weight
  0.000000  0.000000  0.000000      1.000000
 
 Following cartesian coordinates:
            Coordinates               Weight
  0.000000  0.000000  0.000000      1.000000
 


--------------------------------------------------------------------------------------------------------




 Dimension of arrays:
   k-points           NKPTS =      1   k-points in BZ     NKDIM =      1   number of bands    NBANDS=    112
   number of dos      NEDOS =    301   number of ions     NIONS =     17
   non local maximal  LDIM  =      6   non local SUM 2l+1 LMDIM =     18
   total plane-waves  NPLWV = ******
   max r-space proj   IRMAX =   1716   max aug-charges    IRDMAX=   7003
   dimension x,y,z NGX =   140 NGY =  140 NGZ =  126
   dimension x,y,z NGXF=   280 NGYF=  280 NGZF=  252
   support grid    NGXF=   280 NGYF=  280 NGZF=  252
   ions per type =              17
   NGX,Y,Z   is equivalent  to a cutoff of   8.82,  8.70,  8.28 a.u.
   NGXF,Y,Z  is equivalent  to a cutoff of  17.65, 17.41, 16.56 a.u.

 SYSTEM =  BLACK                                   
 POSCAR =  17-c1-1-39.xyz                          

 Startparameter for this run:
   NWRITE =      2    write-flag & timer
   PREC   = normal    normal or accurate (medium, high low for compatibility)
   ISTART =      0    job   : 0-new  1-cont  2-samecut
   ICHARG =      2    charge: 1-file 2-atom 10-const
   ISPIN  =      1    spin polarized calculation?
   LNONCOLLINEAR =      F non collinear calculations
   LSORBIT =      F    spin-orbit coupling
   INIWAV =      1    electr: 0-lowe 1-rand  2-diag
   LASPH  =      F    aspherical Exc in radial PAW
   METAGGA=      F    non-selfconsistent MetaGGA calc.

 Electronic Relaxation 1
   ENCUT  =  400.0 eV  29.40 Ry    5.42 a.u.  43.02 43.60 41.26*2*pi/ulx,y,z
   ENINI  =  400.0     initial cutoff
   ENAUG  =  412.5 eV  augmentation charge cutoff
   NELM   =    200;   NELMIN=  2; NELMDL= -5     # of ELM steps 
   EDIFF  = 0.1E-04   stopping-criterion for ELM
   LREAL  =      T    real-space projection
   NLSPLINE    = F    spline interpolate recip. space projectors
   LCOMPAT=      F    compatible to vasp.4.4
   GGA_COMPAT  = T    GGA compatible to vasp.4.4-vasp.4.6
   LMAXPAW     = -100 max onsite density
   LMAXMIX     =    2 max onsite mixed and CHGCAR
   VOSKOWN=      0    Vosko Wilk Nusair interpolation
   ROPT   =   -0.00050
 Ionic relaxation
   EDIFFG = -.1E-01   stopping-criterion for IOM
   NSW    =   1000    number of steps for IOM
   NBLOCK =      1;   KBLOCK =   1000    inner block; outer block 
   IBRION =      2    ionic relax: 0-MD 1-quasi-New 2-CG
   NFREE  =      1    steps in history (QN), initial steepest desc. (CG)
   ISIF   =      2    stress and relaxation
   IWAVPR =     11    prediction:  0-non 1-charg 2-wave 3-comb
   ISYM   =      2    0-nonsym 1-usesym 2-fastsym
   LCORR  =      T    Harris-Foulkes like correction to forces

   POTIM  = 0.5000    time-step for ionic-motion
   TEIN   =    0.0    initial temperature
   TEBEG  =    0.0;   TEEND  =   0.0 temperature during run
   SMASS  =  -3.00    Nose mass-parameter (am)
   estimated Nose-frequenzy (Omega)   =  0.10E-29 period in steps =****** mass=  -0.159E-25a.u.
   SCALEE = 1.0000    scale energy and forces
   NPACO  =    256;   APACO  = 16.0  distance and # of slots for P.C.
   PSTRESS=    0.0 pullay stress

  Mass of Ions in am
   POMASS = 107.87
  Ionic Valenz
   ZVAL   =  11.00
  Atomic Wigner-Seitz radii
   RWIGS  =  -1.00
  virtual crystal weights 
   VCA    =   1.00
   NELECT =     187.0000    total number of electrons
   NUPDOWN=      -1.0000    fix difference up-down

 DOS related values:
   EMIN   =  10.00;   EMAX   =-10.00  energy-range for DOS
   EFERMI =   0.00
   ISMEAR =     0;   SIGMA  =   0.05  broadening in eV -4-tet -1-fermi 0-gaus

 Electronic relaxation 2 (details)
   IALGO  =     68    algorithm
   LDIAG  =      T    sub-space diagonalisation (order eigenvalues)
   LSUBROT=      F    optimize rotation matrix (better conditioning)
   TURBO    =      0    0=normal 1=particle mesh
   IRESTART =      0    0=no restart 2=restart with 2 vectors
   NREBOOT  =      0    no. of reboots
   NMIN     =      0    reboot dimension
   EREF     =   0.00    reference energy to select bands
   IMIX   =      4    mixing-type and parameters
     AMIX     =   0.40;   BMIX     =  1.00
     AMIX_MAG =   1.60;   BMIX_MAG =  1.00
     AMIN     =   0.10
     WC   =   100.;   INIMIX=   1;  MIXPRE=   1;  MAXMIX= -45

 Intra band minimization:
   WEIMIN = 0.0010     energy-eigenvalue tresh-hold
   EBREAK =  0.22E-07  absolut break condition
   DEPER  =   0.30     relativ break condition  

   TIME   =   0.40     timestep for ELM

  volume/ion in A,a.u.               =    1049.75      7084.07
  Fermi-wavevector in a.u.,A,eV,Ry     =   0.358242  0.676980  1.746138  0.128338
  Thomas-Fermi vector in A             =   1.276269
 
 Write flags
   LWAVE        =      F    write WAVECAR
   LDOWNSAMPLE  =      F    k-point downsampling of WAVECAR
   LCHARG       =      F    write CHGCAR
   LVTOT        =      F    write LOCPOT, total local potential
   LVHAR        =      F    write LOCPOT, Hartree potential only
   LELF         =      F    write electronic localiz. function (ELF)
   LORBIT       =      0    0 simple, 1 ext, 2 COOP (PROOUT), +10 PAW based schemes


 Dipole corrections
   LMONO  =      F    monopole corrections only (constant potential shift)
   LDIPOL =      F    correct potential (dipole corrections)
   IDIPOL =      0    1-x, 2-y, 3-z, 4-all directions 
   EPSILON=  1.0000000 bulk dielectric constant

 Exchange correlation treatment:
   GGA     =    PE    GGA type
   LEXCH   =     8    internal setting for exchange type
   VOSKOWN=      0    Vosko Wilk Nusair interpolation
   LHFCALC =     F    Hartree Fock is set to
   LHFONE  =     F    Hartree Fock one center treatment
   AEXX    =    0.0000 exact exchange contribution

 Linear response parameters
   LEPSILON=     F    determine dielectric tensor
   LRPA    =     F    only Hartree local field effects (RPA)
   LNABLA  =     F    use nabla operator in PAW spheres
   LVEL    =     F    velocity operator in full k-point grid
   LINTERFAST=   F  fast interpolation
   KINTER  =     0    interpolate to denser k-point grid
   CSHIFT  =0.1000    complex shift for real part using Kramers Kronig
   OMEGAMAX=  -1.0    maximum frequency
   DEG_THRESHOLD= 0.2000000E-02 threshold for treating states as degnerate
   RTIME   =   -0.100 relaxation time in fs
  (WPLASMAI=    0.000 imaginary part of plasma frequency in eV, 0.658/RTIME)
   DFIELD  = 0.0000000 0.0000000 0.0000000 field for delta impulse in time
 
 Orbital magnetization related:
   ORBITALMAG=     F  switch on orbital magnetization
   LCHIMAG   =     F  perturbation theory with respect to B field
   DQ        =  0.001000  dq finite difference perturbation B field
   LLRAUG    =     F  two centre corrections for induced B field



--------------------------------------------------------------------------------------------------------


 conjugate gradient relaxation of ions
 charge density and potential will be updated during run
 non-spin polarized calculation
 RMM-DIIS sequential band-by-band and
  variant of blocked Davidson during initial phase
 perform sub-space diagonalisation
    before iterative eigenvector-optimisation
 modified Broyden-mixing scheme, WC =      100.0
 initial mixing is a Kerker type mixing with AMIX =  0.4000 and BMIX =      1.0000
 Hartree-type preconditioning will be used
 using additional bands           18
 real space projection scheme for non local part
 use partial core corrections
 calculate Harris-corrections to forces 
   (improved forces if not selfconsistent)
 use gradient corrections 
 use of overlap-Matrix (Vanderbilt PP)
 Gauss-broadening in eV      SIGMA  =   0.05


--------------------------------------------------------------------------------------------------------


  energy-cutoff  :      400.00
  volume of cell :    17845.78
      direct lattice vectors                 reciprocal lattice vectors
    26.377620919  0.000000000  0.000000000     0.037910925  0.000000000  0.000000000
     0.000000000 26.736971857  0.000000000     0.000000000  0.037401393  0.000000000
     0.000000000  0.000000000 25.303909478     0.000000000  0.000000000  0.039519585

  length of vectors
    26.377620919 26.736971857 25.303909478     0.037910925  0.037401393  0.039519585


 
 k-points in units of 2pi/SCALE and weight: Monkhorst Pack                          
   0.00000000  0.00000000  0.00000000       1.000
 
 k-points in reciprocal lattice and weights: Monkhorst Pack                          
   0.00000000  0.00000000  0.00000000       1.000
 
 position of ions in fractional coordinates (direct lattice) 
   0.58193705  0.53186010  0.56125728
   0.67231718  0.76161021  0.61372727
   0.60479946  0.73589391  0.53052092
   0.51317917  0.68942591  0.55871047
   0.59609808  0.63304925  0.71793889
   0.49878830  0.58801589  0.52864687
   0.68968736  0.67524246  0.55092457
   0.59404898  0.63308275  0.50833059
   0.67759595  0.50963808  0.61620880
   0.74056981  0.59920516  0.61546445
   0.52626551  0.61293166  0.63365741
   0.68539086  0.57335059  0.71051340
   0.58786062  0.53171335  0.67720540
   0.67982950  0.57145795  0.52453399
   0.69003429  0.67860467  0.67700660
   0.58339874  0.70761823  0.64025080
   0.63334195  0.60906297  0.61677284
 
 position of ions in cartesian coordinates  (Angst):
  15.35011481 14.22032855 14.20200343
  17.73412783 20.36315085 15.52969940
  15.95317096 19.67557474 13.42425342
  13.53644564 18.43316118 14.13755913
  15.72364922 16.92582009 18.16666068
  13.15684878 15.72176421 13.37683254
  18.19231171 18.05393869 13.94054541
  15.66959874 16.92671561 12.86275120
  17.87336905 13.62617900 15.59249166
  19.53446970 16.02093161 15.57365683
  13.88163205 16.38793642 16.03400980
  18.07898039 15.32965848 17.97876670
  15.50636460 14.21640479 17.13594407
  17.93228471 15.27905508 13.27276053
  18.20146284 18.14383401 17.13091380
  15.38867085 18.91956881 16.20084836
  16.70605374 16.28449946 15.60676417
 


--------------------------------------------------------------------------------------------------------


 k-point  1 :   0.0000 0.0000 0.0000  plane waves:  324091

 maximum and minimum number of plane-waves per node :     20266    20247

 maximum number of plane-waves:    324091
 maximum index in each direction: 
   IXMAX=   43   IYMAX=   43   IZMAX=   41
   IXMIN=  -43   IYMIN=  -43   IZMIN=  -41


 real space projection operators:
  total allocation   :       3860.02 KBytes
  max/ min on nodes  :        299.39        178.59


 parallel 3D FFT for wavefunctions:
    minimum data exchange during FFTs selected (reduces bandwidth)
 parallel 3D FFT for charge:
    minimum data exchange during FFTs selected (reduces bandwidth)


 total amount of memory used by VASP MPI-rank0   112253. kBytes
=======================================================================

   base      :      30000. kBytes
   nonlr-proj:        810. kBytes
   fftplans  :      26221. kBytes
   grid      :      37013. kBytes
   one-center:         31. kBytes
   wavefun   :      18178. kBytes
 
     INWAV:  cpu time    0.0000: real time    0.0002
 Broyden mixing: mesh for mixing (old mesh)
   NGX = 87   NGY = 87   NGZ = 83
  (NGX  =280   NGY  =280   NGZ  =252)
  gives a total of 628227 points

 initial charge density was supplied:
 charge density of overlapping atoms calculated
 number of electron     187.0000000 magnetization 
 keeping initial charge density in first step


--------------------------------------------------------------------------------------------------------


 Maximum index for non-local projection operator          164
 Maximum index for augmentation-charges          416 (set IRDMAX)


--------------------------------------------------------------------------------------------------------


 First call to EWALD:  gamma=   0.068
 Maximum number of real-space cells 3x 3x 3
 Maximum number of reciprocal cells 3x 3x 3

    FEWALD:  cpu time    0.0034: real time    0.0034


--------------------------------------- Iteration      1(   1)  ---------------------------------------


    POTLOK:  cpu time    0.4877: real time    0.4955
    SETDIJ:  cpu time    0.0027: real time    0.0074
     EDDAV:  cpu time    3.9888: real time    4.1348
       DOS:  cpu time    0.0006: real time    0.0007
    --------------------------------------------
      LOOP:  cpu time    4.4799: real time    4.6384

 eigenvalue-minimisations  :   224
 total energy-change (2. order) : 0.1623835E+04  (-0.2700224E+04)
 number of electron     187.0000000 magnetization 
 augmentation part      187.0000000 magnetization 

 Free energy of the ion-electron system (eV)
  ---------------------------------------------------
  alpha Z        PSCENC =        28.75747972
  Ewald energy   TEWEN  =     33659.88398527
  -Hartree energ DENC   =    -50482.09336724
  -exchange      EXHF   =         0.00000000
  -V(xc)+E(xc)   XCENC  =      -195.60537012
  PAW double counting   =     14801.37630017   -14012.58914770
  entropy T*S    EENTRO =        -0.06219913
  eigenvalues    EBANDS =       188.29422240
  atomic energy  EATOM  =     17635.87358239
  Solvation  Ediel_sol  =         0.00000000
  ---------------------------------------------------
  free energy    TOTEN  =      1623.83548577 eV

  energy without entropy =     1623.89768489  energy(sigma->0) =     1623.86658533


--------------------------------------------------------------------------------------------------------




--------------------------------------- Iteration      1(   2)  ---------------------------------------


     EDDAV:  cpu time    5.7592: real time    5.9682
       DOS:  cpu time    0.0004: real time    0.0004
    --------------------------------------------
      LOOP:  cpu time    5.7596: real time    5.9686

 eigenvalue-minimisations  :   416
 total energy-change (2. order) :-0.7511020E+03  (-0.6911759E+03)
 number of electron     187.0000000 magnetization 
 augmentation part      187.0000000 magnetization 

 Free energy of the ion-electron system (eV)
  ---------------------------------------------------
  alpha Z        PSCENC =        28.75747972
  Ewald energy   TEWEN  =     33659.88398527
  -Hartree energ DENC   =    -50482.09336724
  -exchange      EXHF   =         0.00000000
  -V(xc)+E(xc)   XCENC  =      -195.60537012
  PAW double counting   =     14801.37630017   -14012.58914770
  entropy T*S    EENTRO =        -0.07716521
  eigenvalues    EBANDS =      -562.79281448
  atomic energy  EATOM  =     17635.87358239
  Solvation  Ediel_sol  =         0.00000000
  ---------------------------------------------------
  free energy    TOTEN  =       872.73348281 eV

  energy without entropy =      872.81064802  energy(sigma->0) =      872.77206542


--------------------------------------------------------------------------------------------------------




--------------------------------------- Iteration      1(   3)  ---------------------------------------


     EDDAV:  cpu time    5.1206: real time    5.3423
       DOS:  cpu time    0.0004: real time    0.0004
    --------------------------------------------
      LOOP:  cpu time    5.1210: real time    5.3427

 eigenvalue-minimisations  :   360
 total energy-change (2. order) :-0.7006282E+03  (-0.6624095E+03)
 number of electron     187.0000000 magnetization 
 augmentation part      187.0000000 magnetization 

 Free energy of the ion-electron system (eV)
  ---------------------------------------------------
  alpha Z        PSCENC =        28.75747972
  Ewald energy   TEWEN  =     33659.88398527
  -Hartree energ DENC   =    -50482.09336724
  -exchange      EXHF   =         0.00000000
  -V(xc)+E(xc)   XCENC  =      -195.60537012
  PAW double counting   =     14801.37630017   -14012.58914770
  entropy T*S    EENTRO =        -0.02821012
  eigenvalues    EBANDS =     -1263.46992663
  atomic energy  EATOM  =     17635.87358239
  Solvation  Ediel_sol  =         0.00000000
  ---------------------------------------------------
  free energy    TOTEN  =       172.10532575 eV

  energy without entropy =      172.13353587  energy(sigma->0) =      172.11943081


--------------------------------------------------------------------------------------------------------




--------------------------------------- Iteration      1(   4)  ---------------------------------------


     EDDAV:  cpu time    4.3065: real time    4.5389
       DOS:  cpu time    0.0005: real time    0.0005
    --------------------------------------------
      LOOP:  cpu time    4.3070: real time    4.5394

 eigenvalue-minimisations  :   288
 total energy-change (2. order) :-0.1907455E+03  (-0.1742477E+03)
 number of electron     187.0000000 magnetization 
 augmentation part      187.0000000 magnetization 

 Free energy of the ion-electron system (eV)
  ---------------------------------------------------
  alpha Z        PSCENC =        28.75747972
  Ewald energy   TEWEN  =     33659.88398527
  -Hartree energ DENC   =    -50482.09336724
  -exchange      EXHF   =         0.00000000
  -V(xc)+E(xc)   XCENC  =      -195.60537012
  PAW double counting   =     14801.37630017   -14012.58914770
  entropy T*S    EENTRO =        -0.02820948
  eigenvalues    EBANDS =     -1454.21542813
  atomic energy  EATOM  =     17635.87358239
  Solvation  Ediel_sol  =         0.00000000
  ---------------------------------------------------
  free energy    TOTEN  =       -18.64017511 eV

  energy without entropy =      -18.61196563  energy(sigma->0) =      -18.62607037


--------------------------------------------------------------------------------------------------------




--------------------------------------- Iteration      1(   5)  ---------------------------------------


     EDDAV:  cpu time    3.7761: real time    4.0043
       DOS:  cpu time    0.0004: real time    0.0004
    CHARGE:  cpu time    0.3331: real time    0.3370
    MIXING:  cpu time    0.0143: real time    0.0187
    --------------------------------------------
      LOOP:  cpu time    4.1239: real time    4.3605

 eigenvalue-minimisations  :   240
 total energy-change (2. order) :-0.1868242E+02  (-0.1842562E+02)
 number of electron     186.9999934 magnetization 
 augmentation part       88.7543359 magnetization 

 Broyden mixing:
  rms(total) = 0.73052E+00    rms(broyden)= 0.73049E+00
  rms(prec ) = 0.80221E+00
  weight for this iteration     100.00

 Free energy of the ion-electron system (eV)
  ---------------------------------------------------
  alpha Z        PSCENC =        28.75747972
  Ewald energy   TEWEN  =     33659.88398527
  -Hartree energ DENC   =    -50482.09336724
  -exchange      EXHF   =         0.00000000
  -V(xc)+E(xc)   XCENC  =      -195.60537012
  PAW double counting   =     14801.37630017   -14012.58914770
  entropy T*S    EENTRO =        -0.02820948
  eigenvalues    EBANDS =     -1472.89785197
  atomic energy  EATOM  =     17635.87358239
  Solvation  Ediel_sol  =         0.00000000
  ---------------------------------------------------
  free energy    TOTEN  =       -37.32259896 eV

  energy without entropy =      -37.29438948  energy(sigma->0) =      -37.30849422


--------------------------------------------------------------------------------------------------------




--------------------------------------- Iteration      1(   6)  ---------------------------------------


    POTLOK:  cpu time    0.4718: real time    0.4722
    SETDIJ:  cpu time    0.0019: real time    0.0020
    EDDIAG:  cpu time    0.7075: real time    0.7122
  RMM-DIIS:  cpu time    2.5550: real time    2.7721
    ORTHCH:  cpu time    0.0575: real time    0.0577
       DOS:  cpu time    0.0005: real time    0.0005
    CHARGE:  cpu time    0.3006: real time    0.3007
    MIXING:  cpu time    0.0140: real time    0.0163
    --------------------------------------------
      LOOP:  cpu time    4.1089: real time    4.3338

 eigenvalue-minimisations  :   224
 total energy-change (2. order) : 0.1906444E+01  (-0.1020211E+01)
 number of electron     186.9999934 magnetization 
 augmentation part       90.0022549 magnetization 

 Broyden mixing:
  rms(total) = 0.21295E+00    rms(broyden)= 0.21292E+00
  rms(prec ) = 0.24204E+00
  weight for this iteration     100.00

 eigenvalues of (default mixing * dielectric matrix)
  average eigenvalue GAMMA=   1.2460
  1.2460

 Free energy of the ion-electron system (eV)
  ---------------------------------------------------
  alpha Z        PSCENC =        28.75747972
  Ewald energy   TEWEN  =     33659.88398527
  -Hartree energ DENC   =    -50432.18659386
  -exchange      EXHF   =         0.00000000
  -V(xc)+E(xc)   XCENC  =      -198.98504070
  PAW double counting   =     14705.08786793   -13925.35666289
  entropy T*S    EENTRO =        -0.02820948
  eigenvalues    EBANDS =     -1508.46256383
  atomic energy  EATOM  =     17635.87358239
  Solvation  Ediel_sol  =         0.00000000
  ---------------------------------------------------
  free energy    TOTEN  =       -35.41615543 eV

  energy without entropy =      -35.38794595  energy(sigma->0) =      -35.40205069


--------------------------------------------------------------------------------------------------------




--------------------------------------- Iteration      1(   7)  ---------------------------------------


    POTLOK:  cpu time    0.4724: real time    0.4729
    SETDIJ:  cpu time    0.0019: real time    0.0019
    EDDIAG:  cpu time    0.7411: real time    0.7418
  RMM-DIIS:  cpu time    2.5528: real time    2.7179
    ORTHCH:  cpu time    0.0555: real time    0.0557
       DOS:  cpu time    0.0006: real time    0.0006
    CHARGE:  cpu time    0.2984: real time    0.2999
    MIXING:  cpu time    0.0139: real time    0.0140
    --------------------------------------------
      LOOP:  cpu time    4.1366: real time    4.3046

 eigenvalue-minimisations  :   224
 total energy-change (2. order) : 0.1827024E+00  (-0.1126886E+00)
 number of electron     186.9999933 magnetization 
 augmentation part       90.2915272 magnetization 

 Broyden mixing:
  rms(total) = 0.91703E-01    rms(broyden)= 0.91694E-01
  rms(prec ) = 0.10102E+00
  weight for this iteration     100.00

 eigenvalues of (default mixing * dielectric matrix)
  average eigenvalue GAMMA=   1.6096
  1.2528  1.9665

 Free energy of the ion-electron system (eV)
  ---------------------------------------------------
  alpha Z        PSCENC =        28.75747972
  Ewald energy   TEWEN  =     33659.88398527
  -Hartree energ DENC   =    -50438.32667916
  -exchange      EXHF   =         0.00000000
  -V(xc)+E(xc)   XCENC  =      -199.81971411
  PAW double counting   =     14726.60890104   -13954.67065270
  entropy T*S    EENTRO =        -0.02820948
  eigenvalues    EBANDS =     -1493.51214603
  atomic energy  EATOM  =     17635.87358239
  Solvation  Ediel_sol  =         0.00000000
  ---------------------------------------------------
  free energy    TOTEN  =       -35.23345305 eV

  energy without entropy =      -35.20524357  energy(sigma->0) =      -35.21934831


--------------------------------------------------------------------------------------------------------




--------------------------------------- Iteration      1(   8)  ---------------------------------------


    POTLOK:  cpu time    0.4715: real time    0.4730
    SETDIJ:  cpu time    0.0019: real time    0.0019
    EDDIAG:  cpu time    0.7083: real time    0.7088
  RMM-DIIS:  cpu time    2.5211: real time    2.5276
    ORTHCH:  cpu time    0.1018: real time    0.2084
       DOS:  cpu time    0.0004: real time    0.0004
    CHARGE:  cpu time    0.2964: real time    0.2966
    MIXING:  cpu time    0.0144: real time    0.0144
    --------------------------------------------
      LOOP:  cpu time    4.1157: real time    4.2312

 eigenvalue-minimisations  :   225
 total energy-change (2. order) : 0.3413876E-01  (-0.9324445E-02)
 number of electron     186.9999933 magnetization 
 augmentation part       90.2184843 magnetization 

 Broyden mixing:
  rms(total) = 0.35238E-01    rms(broyden)= 0.35238E-01
  rms(prec ) = 0.41225E-01
  weight for this iteration     100.00

 eigenvalues of (default mixing * dielectric matrix)
  average eigenvalue GAMMA=   1.6767
  1.2232  1.2232  2.5837

 Free energy of the ion-electron system (eV)
  ---------------------------------------------------
  alpha Z        PSCENC =        28.75747972
  Ewald energy   TEWEN  =     33659.88398527
  -Hartree energ DENC   =    -50456.32950795
  -exchange      EXHF   =         0.00000000
  -V(xc)+E(xc)   XCENC  =      -199.74817554
  PAW double counting   =     14771.08549217   -14004.67566032
  entropy T*S    EENTRO =        -0.02820948
  eigenvalues    EBANDS =     -1470.01830056
  atomic energy  EATOM  =     17635.87358239
  Solvation  Ediel_sol  =         0.00000000
  ---------------------------------------------------
  free energy    TOTEN  =       -35.19931429 eV

  energy without entropy =      -35.17110481  energy(sigma->0) =      -35.18520955


--------------------------------------------------------------------------------------------------------




--------------------------------------- Iteration      1(   9)  ---------------------------------------


    POTLOK:  cpu time    0.5260: real time    0.6562
    SETDIJ:  cpu time    0.0020: real time    0.0020
    EDDIAG:  cpu time    0.7082: real time    0.7089
  RMM-DIIS:  cpu time    2.5592: real time    2.5612
    ORTHCH:  cpu time    0.0546: real time    0.0546
       DOS:  cpu time    0.0006: real time    0.0006
    CHARGE:  cpu time    0.3142: real time    0.3181
    MIXING:  cpu time    0.0153: real time    0.0153
    --------------------------------------------
      LOOP:  cpu time    4.1801: real time    4.3170

 eigenvalue-minimisations  :   226
 total energy-change (2. order) : 0.5833896E-02  (-0.1312494E-02)
 number of electron     186.9999933 magnetization 
 augmentation part       90.2444794 magnetization 

 Broyden mixing:
  rms(total) = 0.12159E-01    rms(broyden)= 0.12158E-01
  rms(prec ) = 0.17396E-01
  weight for this iteration     100.00

 eigenvalues of (default mixing * dielectric matrix)
  average eigenvalue GAMMA=   1.5731
  2.5708  1.5495  0.9239  1.2485

 Free energy of the ion-electron system (eV)
  ---------------------------------------------------
  alpha Z        PSCENC =        28.75747972
  Ewald energy   TEWEN  =     33659.88398527
  -Hartree energ DENC   =    -50463.55814474
  -exchange      EXHF   =         0.00000000
  -V(xc)+E(xc)   XCENC  =      -199.80890378
  PAW double counting   =     14776.50216837   -14011.92317055
  entropy T*S    EENTRO =        -0.02820948
  eigenvalues    EBANDS =     -1460.89226761
  atomic energy  EATOM  =     17635.87358239
  Solvation  Ediel_sol  =         0.00000000
  ---------------------------------------------------
  free energy    TOTEN  =       -35.19348040 eV

  energy without entropy =      -35.16527092  energy(sigma->0) =      -35.17937566


--------------------------------------------------------------------------------------------------------




--------------------------------------- Iteration      1(  10)  ---------------------------------------


    POTLOK:  cpu time    0.5459: real time    0.6149
    SETDIJ:  cpu time    0.0020: real time    0.0020
    EDDIAG:  cpu time    0.7330: real time    0.8623
  RMM-DIIS:  cpu time    2.5320: real time    2.5408
    ORTHCH:  cpu time    0.0547: real time    0.0548
       DOS:  cpu time    0.0006: real time    0.0006
    CHARGE:  cpu time    0.3016: real time    0.3018
    MIXING:  cpu time    0.0164: real time    0.0164
    --------------------------------------------
      LOOP:  cpu time    4.1862: real time    4.3935

 eigenvalue-minimisations  :   224
 total energy-change (2. order) : 0.2001797E-04  (-0.1719069E-03)
 number of electron     186.9999933 magnetization 
 augmentation part       90.2495110 magnetization 

 Broyden mixing:
  rms(total) = 0.75261E-02    rms(broyden)= 0.75260E-02
  rms(prec ) = 0.12365E-01
  weight for this iteration     100.00

 eigenvalues of (default mixing * dielectric matrix)
  average eigenvalue GAMMA=   1.7261
  2.6297  2.6297  1.2280  1.2280  0.9149

 Free energy of the ion-electron system (eV)
  ---------------------------------------------------
  alpha Z        PSCENC =        28.75747972
  Ewald energy   TEWEN  =     33659.88398527
  -Hartree energ DENC   =    -50468.40293840
  -exchange      EXHF   =         0.00000000
  -V(xc)+E(xc)   XCENC  =      -199.76439118
  PAW double counting   =     14773.84587010   -14009.08395662
  entropy T*S    EENTRO =        -0.02820948
  eigenvalues    EBANDS =     -1456.27488219
  atomic energy  EATOM  =     17635.87358239
  Solvation  Ediel_sol  =         0.00000000
  ---------------------------------------------------
  free energy    TOTEN  =       -35.19346038 eV

  energy without entropy =      -35.16525090  energy(sigma->0) =      -35.17935564


--------------------------------------------------------------------------------------------------------




--------------------------------------- Iteration      1(  11)  ---------------------------------------


    POTLOK:  cpu time    0.4757: real time    0.4762
    SETDIJ:  cpu time    0.0019: real time    0.0019
    EDDIAG:  cpu time    0.7778: real time    0.8802
  RMM-DIIS:  cpu time    2.5643: real time    2.6739
    ORTHCH:  cpu time    0.0537: real time    0.0537
       DOS:  cpu time    0.0007: real time    0.0007
    CHARGE:  cpu time    0.3051: real time    0.3055
    MIXING:  cpu time    0.0170: real time    0.0170
    --------------------------------------------
      LOOP:  cpu time    4.1963: real time    4.4092

 eigenvalue-minimisations  :   224
 total energy-change (2. order) :-0.1536680E-02  (-0.2329449E-03)
 number of electron     186.9999933 magnetization 
 augmentation part       90.2354306 magnetization 

 Broyden mixing:
  rms(total) = 0.49028E-02    rms(broyden)= 0.49027E-02
  rms(prec ) = 0.73182E-02
  weight for this iteration     100.00

 eigenvalues of (default mixing * dielectric matrix)
  average eigenvalue GAMMA=   1.8259
  3.6544  2.6251  1.4883  0.9520  1.1180  1.1180

 Free energy of the ion-electron system (eV)
  ---------------------------------------------------
  alpha Z        PSCENC =        28.75747972
  Ewald energy   TEWEN  =     33659.88398527
  -Hartree energ DENC   =    -50478.67548275
  -exchange      EXHF   =         0.00000000
  -V(xc)+E(xc)   XCENC  =      -199.65772138
  PAW double counting   =     14771.35623495   -14006.30322838
  entropy T*S    EENTRO =        -0.02820948
  eigenvalues    EBANDS =     -1446.40163741
  atomic energy  EATOM  =     17635.87358239
  Solvation  Ediel_sol  =         0.00000000
  ---------------------------------------------------
  free energy    TOTEN  =       -35.19499706 eV

  energy without entropy =      -35.16678758  energy(sigma->0) =      -35.18089232


--------------------------------------------------------------------------------------------------------




--------------------------------------- Iteration      1(  12)  ---------------------------------------


    POTLOK:  cpu time    0.4760: real time    0.5845
    SETDIJ:  cpu time    0.0020: real time    0.0020
    EDDIAG:  cpu time    0.7224: real time    0.7275
  RMM-DIIS:  cpu time    2.5689: real time    2.7269
    ORTHCH:  cpu time    0.0583: real time    0.0583
       DOS:  cpu time    0.0006: real time    0.0006
    CHARGE:  cpu time    0.3321: real time    0.3326
    MIXING:  cpu time    0.0176: real time    0.0176
    --------------------------------------------
      LOOP:  cpu time    4.1779: real time    4.4500

 eigenvalue-minimisations  :   224
 total energy-change (2. order) :-0.2156274E-02  (-0.1086922E-03)
 number of electron     186.9999933 magnetization 
 augmentation part       90.2439162 magnetization 

 Broyden mixing:
  rms(total) = 0.24916E-02    rms(broyden)= 0.24915E-02
  rms(prec ) = 0.38903E-02
  weight for this iteration     100.00

 eigenvalues of (default mixing * dielectric matrix)
  average eigenvalue GAMMA=   2.0282
  4.8690  2.5972  2.2465  1.3665  0.9475  1.0854  1.0854

 Free energy of the ion-electron system (eV)
  ---------------------------------------------------
  alpha Z        PSCENC =        28.75747972
  Ewald energy   TEWEN  =     33659.88398527
  -Hartree energ DENC   =    -50483.57534283
  -exchange      EXHF   =         0.00000000
  -V(xc)+E(xc)   XCENC  =      -199.64529405
  PAW double counting   =     14768.08422072   -14002.95798958
  entropy T*S    EENTRO =        -0.02820948
  eigenvalues    EBANDS =     -1441.58958550
  atomic energy  EATOM  =     17635.87358239
  Solvation  Ediel_sol  =         0.00000000
  ---------------------------------------------------
  free energy    TOTEN  =       -35.19715333 eV

  energy without entropy =      -35.16894385  energy(sigma->0) =      -35.18304859


--------------------------------------------------------------------------------------------------------




--------------------------------------- Iteration      1(  13)  ---------------------------------------


    POTLOK:  cpu time    0.4772: real time    0.4777
    SETDIJ:  cpu time    0.0021: real time    0.0021
    EDDIAG:  cpu time    0.7148: real time    0.7156
  RMM-DIIS:  cpu time    2.7737: real time    3.0407
    ORTHCH:  cpu time    0.0567: real time    0.0567
       DOS:  cpu time    0.0007: real time    0.0007
    CHARGE:  cpu time    0.3015: real time    0.3017
    MIXING:  cpu time    0.0184: real time    0.0184
    --------------------------------------------
      LOOP:  cpu time    4.3450: real time    4.6135

 eigenvalue-minimisations  :   224
 total energy-change (2. order) :-0.3114694E-02  (-0.4910037E-04)
 number of electron     186.9999933 magnetization 
 augmentation part       90.2412740 magnetization 

 Broyden mixing:
  rms(total) = 0.12688E-02    rms(broyden)= 0.12688E-02
  rms(prec ) = 0.19729E-02
  weight for this iteration     100.00

 eigenvalues of (default mixing * dielectric matrix)
  average eigenvalue GAMMA=   2.0746
  5.3009  2.9866  2.0920  1.9134  1.1801  1.1801  0.9719  0.9719

 Free energy of the ion-electron system (eV)
  ---------------------------------------------------
  alpha Z        PSCENC =        28.75747972
  Ewald energy   TEWEN  =     33659.88398527
  -Hartree energ DENC   =    -50487.01407779
  -exchange      EXHF   =         0.00000000
  -V(xc)+E(xc)   XCENC  =      -199.62809379
  PAW double counting   =     14767.21623474   -14002.15504038
  entropy T*S    EENTRO =        -0.02820948
  eigenvalues    EBANDS =     -1438.10612871
  atomic energy  EATOM  =     17635.87358239
  Solvation  Ediel_sol  =         0.00000000
  ---------------------------------------------------
  free energy    TOTEN  =       -35.20026803 eV

  energy without entropy =      -35.17205855  energy(sigma->0) =      -35.18616329


--------------------------------------------------------------------------------------------------------




--------------------------------------- Iteration      1(  14)  ---------------------------------------


    POTLOK:  cpu time    0.4858: real time    0.4862
    SETDIJ:  cpu time    0.0020: real time    0.0020
    EDDIAG:  cpu time    0.7173: real time    0.7179
  RMM-DIIS:  cpu time    2.0326: real time    2.1148
    ORTHCH:  cpu time    0.0472: real time    0.1035
       DOS:  cpu time    0.0006: real time    0.0006
    CHARGE:  cpu time    0.3006: real time    0.3007
    MIXING:  cpu time    0.0184: real time    0.0184
    --------------------------------------------
      LOOP:  cpu time    3.6045: real time    3.7442

 eigenvalue-minimisations  :   174
 total energy-change (2. order) :-0.1855987E-02  (-0.1207285E-04)
 number of electron     186.9999933 magnetization 
 augmentation part       90.2396735 magnetization 

 Broyden mixing:
  rms(total) = 0.87362E-03    rms(broyden)= 0.87359E-03
  rms(prec ) = 0.12564E-02
  weight for this iteration     100.00

 eigenvalues of (default mixing * dielectric matrix)
  average eigenvalue GAMMA=   2.2245
  6.5004  3.4182  2.5874  1.6812  1.6812  1.1451  1.1451  0.9310  0.9310

 Free energy of the ion-electron system (eV)
  ---------------------------------------------------
  alpha Z        PSCENC =        28.75747972
  Ewald energy   TEWEN  =     33659.88398527
  -Hartree energ DENC   =    -50487.96990330
  -exchange      EXHF   =         0.00000000
  -V(xc)+E(xc)   XCENC  =      -199.62418879
  PAW double counting   =     14767.25890223   -14002.20039798
  entropy T*S    EENTRO =        -0.02820948
  eigenvalues    EBANDS =     -1437.15337408
  atomic energy  EATOM  =     17635.87358239
  Solvation  Ediel_sol  =         0.00000000
  ---------------------------------------------------
  free energy    TOTEN  =       -35.20212401 eV

  energy without entropy =      -35.17391453  energy(sigma->0) =      -35.18801927


--------------------------------------------------------------------------------------------------------




--------------------------------------- Iteration      1(  15)  ---------------------------------------


    POTLOK:  cpu time    0.4820: real time    0.4823
    SETDIJ:  cpu time    0.0019: real time    0.0019
    EDDIAG:  cpu time    0.7449: real time    0.8533
  RMM-DIIS:  cpu time    1.7286: real time    1.7296
    ORTHCH:  cpu time    0.0561: real time    0.0561
       DOS:  cpu time    0.0007: real time    0.0007
    CHARGE:  cpu time    0.3164: real time    0.3208
    MIXING:  cpu time    0.0196: real time    0.0196
    --------------------------------------------
      LOOP:  cpu time    3.3502: real time    3.4643

 eigenvalue-minimisations  :   144
 total energy-change (2. order) :-0.1193955E-02  (-0.9686855E-05)
 number of electron     186.9999933 magnetization 
 augmentation part       90.2422390 magnetization 

 Broyden mixing:
  rms(total) = 0.73824E-03    rms(broyden)= 0.73820E-03
  rms(prec ) = 0.88374E-03
  weight for this iteration     100.00

 eigenvalues of (default mixing * dielectric matrix)
  average eigenvalue GAMMA=   2.2137
  6.9495  3.6991  2.6183  2.0595  1.3699  1.3699  0.9414  0.9414  1.0940  1.0940

 Free energy of the ion-electron system (eV)
  ---------------------------------------------------
  alpha Z        PSCENC =        28.75747972
  Ewald energy   TEWEN  =     33659.88398527
  -Hartree energ DENC   =    -50488.61838373
  -exchange      EXHF   =         0.00000000
  -V(xc)+E(xc)   XCENC  =      -199.63014895
  PAW double counting   =     14767.30703379   -14002.27507027
  entropy T*S    EENTRO =        -0.02820948
  eigenvalues    EBANDS =     -1436.47358673
  atomic energy  EATOM  =     17635.87358239
  Solvation  Ediel_sol  =         0.00000000
  ---------------------------------------------------
  free energy    TOTEN  =       -35.20331797 eV

  energy without entropy =      -35.17510849  energy(sigma->0) =      -35.18921323


--------------------------------------------------------------------------------------------------------




--------------------------------------- Iteration      1(  16)  ---------------------------------------


    POTLOK:  cpu time    0.4811: real time    0.4815
    SETDIJ:  cpu time    0.0019: real time    0.0019
    EDDIAG:  cpu time    0.7605: real time    0.8651
  RMM-DIIS:  cpu time    1.6658: real time    1.8178
    ORTHCH:  cpu time    0.0563: real time    0.0563
       DOS:  cpu time    0.0007: real time    0.0007
    CHARGE:  cpu time    0.3015: real time    0.3017
    MIXING:  cpu time    0.0209: real time    0.0209
    --------------------------------------------
      LOOP:  cpu time    3.2886: real time    3.5459

 eigenvalue-minimisations  :   136
 total energy-change (2. order) :-0.5141587E-03  (-0.3274348E-05)
 number of electron     186.9999933 magnetization 
 augmentation part       90.2396621 magnetization 

 Broyden mixing:
  rms(total) = 0.48402E-03    rms(broyden)= 0.48396E-03
  rms(prec ) = 0.56823E-03
  weight for this iteration     100.00

 eigenvalues of (default mixing * dielectric matrix)
  average eigenvalue GAMMA=   2.3018
  7.4485  4.3319  2.6482  2.6482  1.7542  1.4701  1.0911  1.0911  0.9455  0.9458
  0.9458

 Free energy of the ion-electron system (eV)
  ---------------------------------------------------
  alpha Z        PSCENC =        28.75747972
  Ewald energy   TEWEN  =     33659.88398527
  -Hartree energ DENC   =    -50488.84311450
  -exchange      EXHF   =         0.00000000
  -V(xc)+E(xc)   XCENC  =      -199.62581307
  PAW double counting   =     14767.60888020   -14002.57084473
  entropy T*S    EENTRO =        -0.02820948
  eigenvalues    EBANDS =     -1436.25977793
  atomic energy  EATOM  =     17635.87358239
  Solvation  Ediel_sol  =         0.00000000
  ---------------------------------------------------
  free energy    TOTEN  =       -35.20383213 eV

  energy without entropy =      -35.17562265  energy(sigma->0) =      -35.18972739


--------------------------------------------------------------------------------------------------------




--------------------------------------- Iteration      1(  17)  ---------------------------------------


    POTLOK:  cpu time    0.4823: real time    0.4845
    SETDIJ:  cpu time    0.0019: real time    0.0019
    EDDIAG:  cpu time    0.7094: real time    0.7100
  RMM-DIIS:  cpu time    1.6282: real time    1.6526
    ORTHCH:  cpu time    0.0912: real time    0.1495
       DOS:  cpu time    0.0006: real time    0.0006
    CHARGE:  cpu time    0.3010: real time    0.3012
    MIXING:  cpu time    0.0221: real time    0.0221
    --------------------------------------------
      LOOP:  cpu time    3.2367: real time    3.3224

 eigenvalue-minimisations  :   136
 total energy-change (2. order) :-0.3781696E-03  (-0.2018931E-05)
 number of electron     186.9999933 magnetization 
 augmentation part       90.2410779 magnetization 

 Broyden mixing:
  rms(total) = 0.17267E-03    rms(broyden)= 0.17263E-03
  rms(prec ) = 0.22160E-03
  weight for this iteration     100.00

 eigenvalues of (default mixing * dielectric matrix)
  average eigenvalue GAMMA=   2.3133
  7.9533  4.8104  2.9997  2.5057  1.7005  1.7005  1.1801  1.1801  0.9660  0.9660
  0.8989  0.8989

 Free energy of the ion-electron system (eV)
  ---------------------------------------------------
  alpha Z        PSCENC =        28.75747972
  Ewald energy   TEWEN  =     33659.88398527
  -Hartree energ DENC   =    -50488.88024187
  -exchange      EXHF   =         0.00000000
  -V(xc)+E(xc)   XCENC  =      -199.62802600
  PAW double counting   =     14767.46188782   -14002.40655646
  entropy T*S    EENTRO =        -0.02820948
  eigenvalues    EBANDS =     -1436.23811170
  atomic energy  EATOM  =     17635.87358239
  Solvation  Ediel_sol  =         0.00000000
  ---------------------------------------------------
  free energy    TOTEN  =       -35.20421030 eV

  energy without entropy =      -35.17600082  energy(sigma->0) =      -35.19010556


--------------------------------------------------------------------------------------------------------




--------------------------------------- Iteration      1(  18)  ---------------------------------------


    POTLOK:  cpu time    0.4821: real time    0.4824
    SETDIJ:  cpu time    0.0019: real time    0.0019
    EDDIAG:  cpu time    0.7991: real time    0.9087
  RMM-DIIS:  cpu time    1.6077: real time    1.6289
    ORTHCH:  cpu time    0.0566: real time    0.0566
       DOS:  cpu time    0.0006: real time    0.0006
    CHARGE:  cpu time    0.3008: real time    0.3010
    MIXING:  cpu time    0.0239: real time    0.0239
    --------------------------------------------
      LOOP:  cpu time    3.2726: real time    3.4041

 eigenvalue-minimisations  :   135
 total energy-change (2. order) :-0.1379911E-03  (-0.6209664E-06)
 number of electron     186.9999933 magnetization 
 augmentation part       90.2404957 magnetization 

 Broyden mixing:
  rms(total) = 0.14675E-03    rms(broyden)= 0.14674E-03
  rms(prec ) = 0.17480E-03
  weight for this iteration     100.00

 eigenvalues of (default mixing * dielectric matrix)
  average eigenvalue GAMMA=   2.3654
  7.9480  5.5858  3.0327  2.8948  2.0935  1.7489  1.5301  1.1117  1.1117  0.9103
  0.9103  0.9360  0.9360

 Free energy of the ion-electron system (eV)
  ---------------------------------------------------
  alpha Z        PSCENC =        28.75747972
  Ewald energy   TEWEN  =     33659.88398527
  -Hartree energ DENC   =    -50488.91932931
  -exchange      EXHF   =         0.00000000
  -V(xc)+E(xc)   XCENC  =      -199.62751731
  PAW double counting   =     14767.49902457   -14002.44779899
  entropy T*S    EENTRO =        -0.02820948
  eigenvalues    EBANDS =     -1436.19556516
  atomic energy  EATOM  =     17635.87358239
  Solvation  Ediel_sol  =         0.00000000
  ---------------------------------------------------
  free energy    TOTEN  =       -35.20434829 eV

  energy without entropy =      -35.17613881  energy(sigma->0) =      -35.19024355


--------------------------------------------------------------------------------------------------------




--------------------------------------- Iteration      1(  19)  ---------------------------------------


    POTLOK:  cpu time    0.4810: real time    0.4824
    SETDIJ:  cpu time    0.0019: real time    0.0019
    EDDIAG:  cpu time    0.7035: real time    0.7450
  RMM-DIIS:  cpu time    1.6265: real time    1.9019
    ORTHCH:  cpu time    0.0569: real time    0.0569
       DOS:  cpu time    0.0006: real time    0.0006
    CHARGE:  cpu time    0.3078: real time    0.3083
    MIXING:  cpu time    0.0267: real time    0.0267
    --------------------------------------------
      LOOP:  cpu time    3.2049: real time    3.5237

 eigenvalue-minimisations  :   135
 total energy-change (2. order) :-0.1075897E-03  (-0.5640976E-06)
 number of electron     186.9999933 magnetization 
 augmentation part       90.2410584 magnetization 

 Broyden mixing:
  rms(total) = 0.91881E-04    rms(broyden)= 0.91865E-04
  rms(prec ) = 0.10426E-03
  weight for this iteration     100.00

 eigenvalues of (default mixing * dielectric matrix)
  average eigenvalue GAMMA=   2.3616
  8.3264  5.6989  3.5642  2.7107  2.4376  1.6895  1.6700  1.1359  1.1359  1.0203
  1.0203  0.9298  0.9298  0.7929

 Free energy of the ion-electron system (eV)
  ---------------------------------------------------
  alpha Z        PSCENC =        28.75747972
  Ewald energy   TEWEN  =     33659.88398527
  -Hartree energ DENC   =    -50488.91282794
  -exchange      EXHF   =         0.00000000
  -V(xc)+E(xc)   XCENC  =      -199.62844831
  PAW double counting   =     14767.40626620   -14002.35336987
  entropy T*S    EENTRO =        -0.02820948
  eigenvalues    EBANDS =     -1436.20291386
  atomic energy  EATOM  =     17635.87358239
  Solvation  Ediel_sol  =         0.00000000
  ---------------------------------------------------
  free energy    TOTEN  =       -35.20445588 eV

  energy without entropy =      -35.17624640  energy(sigma->0) =      -35.19035114


--------------------------------------------------------------------------------------------------------




--------------------------------------- Iteration      1(  20)  ---------------------------------------


    POTLOK:  cpu time    0.4835: real time    0.4840
    SETDIJ:  cpu time    0.0019: real time    0.0019
    EDDIAG:  cpu time    0.7158: real time    0.7234
  RMM-DIIS:  cpu time    1.2919: real time    1.2926
    ORTHCH:  cpu time    0.0552: real time    0.0553
       DOS:  cpu time    0.0007: real time    0.0007
    CHARGE:  cpu time    0.3026: real time    0.3027
    MIXING:  cpu time    0.0289: real time    0.0289
    --------------------------------------------
      LOOP:  cpu time    2.8805: real time    2.8895

 eigenvalue-minimisations  :    81
 total energy-change (2. order) :-0.3631909E-04  (-0.1370078E-06)
 number of electron     186.9999933 magnetization 
 augmentation part       90.2409094 magnetization 

 Broyden mixing:
  rms(total) = 0.30709E-04    rms(broyden)= 0.30707E-04
  rms(prec ) = 0.42485E-04
  weight for this iteration     100.00

 eigenvalues of (default mixing * dielectric matrix)
  average eigenvalue GAMMA=   2.3925
  8.2350  6.2572  3.7475  3.0568  2.5697  1.8452  1.8452  1.4132  1.1795  1.0674
  1.0674  0.9682  0.9280  0.8537  0.8537

 Free energy of the ion-electron system (eV)
  ---------------------------------------------------
  alpha Z        PSCENC =        28.75747972
  Ewald energy   TEWEN  =     33659.88398527
  -Hartree energ DENC   =    -50488.91936793
  -exchange      EXHF   =         0.00000000
  -V(xc)+E(xc)   XCENC  =      -199.62831352
  PAW double counting   =     14767.41931482   -14002.36896303
  entropy T*S    EENTRO =        -0.02820948
  eigenvalues    EBANDS =     -1436.19400046
  atomic energy  EATOM  =     17635.87358239
  Solvation  Ediel_sol  =         0.00000000
  ---------------------------------------------------
  free energy    TOTEN  =       -35.20449220 eV

  energy without entropy =      -35.17628272  energy(sigma->0) =      -35.19038746


--------------------------------------------------------------------------------------------------------




--------------------------------------- Iteration      1(  21)  ---------------------------------------


    POTLOK:  cpu time    0.5101: real time    0.6177
    SETDIJ:  cpu time    0.0019: real time    0.0019
    EDDIAG:  cpu time    0.7106: real time    0.7110
  RMM-DIIS:  cpu time    1.2657: real time    1.3615
    ORTHCH:  cpu time    0.0564: real time    0.0564
       DOS:  cpu time    0.0006: real time    0.0006
    CHARGE:  cpu time    0.3014: real time    0.3015
    MIXING:  cpu time    0.0301: real time    0.0301
    --------------------------------------------
      LOOP:  cpu time    2.8767: real time    3.0808

 eigenvalue-minimisations  :    68
 total energy-change (2. order) :-0.1958707E-04  (-0.6582138E-07)
 number of electron     186.9999933 magnetization 
 augmentation part       90.2408406 magnetization 

 Broyden mixing:
  rms(total) = 0.15903E-04    rms(broyden)= 0.15897E-04
  rms(prec ) = 0.21974E-04
  weight for this iteration     100.00

 eigenvalues of (default mixing * dielectric matrix)
  average eigenvalue GAMMA=   2.3616
  8.2080  6.5654  3.9064  3.0374  2.7015  2.0931  1.8741  1.4380  1.2064  1.0851
  1.0851  1.0127  0.8843  0.8843  0.9015  0.9015

 Free energy of the ion-electron system (eV)
  ---------------------------------------------------
  alpha Z        PSCENC =        28.75747972
  Ewald energy   TEWEN  =     33659.88398527
  -Hartree energ DENC   =    -50488.91641389
  -exchange      EXHF   =         0.00000000
  -V(xc)+E(xc)   XCENC  =      -199.62836971
  PAW double counting   =     14767.42381335   -14002.37399799
  entropy T*S    EENTRO =        -0.02820948
  eigenvalues    EBANDS =     -1436.19638145
  atomic energy  EATOM  =     17635.87358239
  Solvation  Ediel_sol  =         0.00000000
  ---------------------------------------------------
  free energy    TOTEN  =       -35.20451178 eV

  energy without entropy =      -35.17630230  energy(sigma->0) =      -35.19040704


--------------------------------------------------------------------------------------------------------




--------------------------------------- Iteration      1(  22)  ---------------------------------------


    POTLOK:  cpu time    0.5051: real time    0.5108
    SETDIJ:  cpu time    0.0019: real time    0.0019
    EDDIAG:  cpu time    0.7100: real time    0.7107
  RMM-DIIS:  cpu time    1.1444: real time    1.1500
    ORTHCH:  cpu time    0.0559: real time    0.0560
       DOS:  cpu time    0.0006: real time    0.0006
    --------------------------------------------
      LOOP:  cpu time    2.4178: real time    2.4299

 eigenvalue-minimisations  :    33
 total energy-change (2. order) :-0.5534079E-05  (-0.2183095E-08)
 number of electron     186.9999933 magnetization 
 augmentation part       90.2408406 magnetization 

 Free energy of the ion-electron system (eV)
  ---------------------------------------------------
  alpha Z        PSCENC =        28.75747972
  Ewald energy   TEWEN  =     33659.88398527
  -Hartree energ DENC   =    -50488.91472785
  -exchange      EXHF   =         0.00000000
  -V(xc)+E(xc)   XCENC  =      -199.62841394
  PAW double counting   =     14767.43020967   -14002.37995897
  entropy T*S    EENTRO =        -0.02820948
  eigenvalues    EBANDS =     -1436.19846414
  atomic energy  EATOM  =     17635.87358239
  Solvation  Ediel_sol  =         0.00000000
  ---------------------------------------------------
  free energy    TOTEN  =       -35.20451732 eV

  energy without entropy =      -35.17630784  energy(sigma->0) =      -35.19041258


--------------------------------------------------------------------------------------------------------




 average (electrostatic) potential at core
  the test charge radii are     1.1249
  (the norm of the test charge is              1.0000)
       1 -48.2223       2 -48.0428       3 -48.0107       4 -48.0181       5 -48.3638
       6 -48.0476       7 -48.2594       8 -48.1087       9 -48.1938      10 -48.2665
      11 -48.2593      12 -48.1924      13 -48.2691      14 -48.3635      15 -48.2193
      16 -48.1020      17 -48.6747
 
 
 
 E-fermi :  -4.0689     XC(G=0):  -0.4052     alpha+bet : -0.1387


 k-point     1 :       0.0000    0.0000    0.0000
  band No.  band energies     occupation 
      1      -9.8410      2.00000
      2      -9.5000      2.00000
      3      -9.4349      2.00000
      4      -9.4139      2.00000
      5      -9.3244      2.00000
      6      -9.2960      2.00000
      7      -8.8985      2.00000
      8      -8.8886      2.00000
      9      -8.8195      2.00000
     10      -8.8078      2.00000
     11      -8.7809      2.00000
     12      -8.7568      2.00000
     13      -8.7349      2.00000
     14      -8.7038      2.00000
     15      -8.6985      2.00000
     16      -8.6694      2.00000
     17      -8.6595      2.00000
     18      -8.6362      2.00000
     19      -8.5962      2.00000
     20      -8.5879      2.00000
     21      -8.5624      2.00000
     22      -8.5439      2.00000
     23      -8.5190      2.00000
     24      -8.5081      2.00000
     25      -8.4763      2.00000
     26      -8.4045      2.00000
     27      -8.3648      2.00000
     28      -8.3418      2.00000
     29      -8.2866      2.00000
     30      -8.2319      2.00000
     31      -8.2267      2.00000
     32      -8.2089      2.00000
     33      -8.1845      2.00000
     34      -8.1407      2.00000
     35      -8.0770      2.00000
     36      -8.0729      2.00000
     37      -8.0459      2.00000
     38      -8.0008      2.00000
     39      -7.9814      2.00000
     40      -7.9618      2.00000
     41      -7.8959      2.00000
     42      -7.8878      2.00000
     43      -7.8417      2.00000
     44      -7.8128      2.00000
     45      -7.7893      2.00000
     46      -7.6063      2.00000
     47      -7.5919      2.00000
     48      -7.5575      2.00000
     49      -7.5241      2.00000
     50      -7.4945      2.00000
     51      -7.4794      2.00000
     52      -7.4294      2.00000
     53      -7.4221      2.00000
     54      -7.3969      2.00000
     55      -7.3945      2.00000
     56      -7.3705      2.00000
     57      -7.3618      2.00000
     58      -7.3368      2.00000
     59      -7.3306      2.00000
     60      -7.3279      2.00000
     61      -7.2983      2.00000
     62      -7.2709      2.00000
     63      -7.2618      2.00000
     64      -7.2490      2.00000
     65      -7.2291      2.00000
     66      -7.2264      2.00000
     67      -7.1807      2.00000
     68      -7.1634      2.00000
     69      -7.1424      2.00000
     70      -7.1258      2.00000
     71      -7.1227      2.00000
     72      -7.1174      2.00000
     73      -7.0660      2.00000
     74      -7.0622      2.00000
     75      -7.0585      2.00000
     76      -7.0132      2.00000
     77      -6.9648      2.00000
     78      -6.9387      2.00000
     79      -6.9286      2.00000
     80      -6.9199      2.00000
     81      -6.9003      2.00000
     82      -6.8441      2.00000
     83      -6.8109      2.00000
     84      -6.7559      2.00000
     85      -6.7495      2.00000
     86      -6.6955      2.00000
     87      -6.5887      2.00000
     88      -6.4075      2.00000
     89      -6.2166      2.00000
     90      -4.9656      2.00000
     91      -4.8124      2.00000
     92      -4.6067      2.00000
     93      -4.3310      2.00000
     94      -4.0689      1.00000
     95      -3.5192      0.00000
     96      -2.8565      0.00000
     97      -2.8254      0.00000
     98      -2.5353      0.00000
     99      -2.5299      0.00000
    100      -2.4445      0.00000
    101      -2.4159      0.00000
    102      -1.9915      0.00000
    103      -1.7179      0.00000
    104      -1.6574      0.00000
    105      -1.5515      0.00000
    106      -0.9126      0.00000
    107      -0.7391      0.00000
    108      -0.7215      0.00000
    109      -0.6811      0.00000
    110      -0.5831      0.00000
    111      -0.4472      0.00000
    112      -0.3500      0.00000


--------------------------------------------------------------------------------------------------------


 soft charge-density along one line, spin component           1
         0         1         2         3         4         5         6         7         8         9
 total charge-density along one line
 
 pseudopotential strength for first ion, spin component:           1
-15.776  -0.005   0.003  -0.003   0.003   0.822   0.001  -0.001
 -0.005 -15.777  -0.002  -0.005   0.006   0.001   0.822   0.000
  0.003  -0.002 -15.773   0.001   0.000  -0.001   0.000   0.821
 -0.003  -0.005   0.001 -15.775  -0.002   0.000   0.001  -0.000
  0.003   0.006   0.000  -0.002 -15.776  -0.001  -0.001  -0.000
  0.822   0.001  -0.001   0.000  -0.001   0.326  -0.000   0.000
  0.001   0.822   0.000   0.001  -0.001  -0.000   0.326  -0.000
 -0.001   0.000   0.821  -0.000  -0.000   0.000  -0.000   0.326
  0.000   0.001  -0.000   0.822   0.000  -0.000  -0.000   0.000
 -0.001  -0.001  -0.000   0.000   0.822   0.000   0.000   0.000
 -0.000  -0.000  -0.000   0.002   0.002  -0.000  -0.000  -0.000
 -0.000  -0.000   0.000  -0.000   0.000   0.000   0.000   0.000
 -0.004  -0.007   0.012   0.001   0.021   0.001   0.001  -0.002
  0.001  -0.021  -0.008  -0.004  -0.000  -0.000   0.004   0.002
 -0.020   0.001   0.003  -0.007  -0.004   0.004  -0.000  -0.001
  0.003   0.004  -0.007  -0.000  -0.013  -0.000  -0.001   0.001
 -0.000   0.013   0.005   0.003   0.000   0.000  -0.002  -0.001
  0.013  -0.000  -0.002   0.005   0.003  -0.002   0.000   0.000
 total augmentation occupancy for first ion, spin component:           1
  1.969  -0.006  -0.004   0.003   0.007  -0.027   0.011   0.003  -0.004  -0.009   0.027   0.013   0.004   0.004  -0.010  -0.003
 -0.006   1.965   0.004   0.000   0.000   0.011  -0.029  -0.003   0.002  -0.003   0.025   0.015   0.004  -0.007  -0.001  -0.004
 -0.004   0.004   1.970   0.003   0.007   0.003  -0.003  -0.032  -0.004  -0.006   0.000   0.002   0.003  -0.002   0.000   0.007
  0.003   0.000   0.003   1.962   0.001  -0.004   0.002  -0.004  -0.024   0.002  -0.016  -0.008   0.007   0.001  -0.006   0.000
  0.007   0.000   0.007   0.001   1.966  -0.009  -0.003  -0.006   0.002  -0.027  -0.027  -0.014   0.007  -0.008  -0.006   0.012
 -0.027   0.011   0.003  -0.004  -0.009   0.052   0.008   0.001  -0.008  -0.004  -0.029  -0.002   0.005   0.001   0.040  -0.000
  0.011  -0.029  -0.003   0.002  -0.003   0.008   0.037   0.006  -0.002  -0.003  -0.029  -0.002   0.002   0.027   0.004  -0.000
  0.003  -0.003  -0.032  -0.004  -0.006   0.001   0.006   0.042   0.003  -0.005  -0.009   0.006  -0.015   0.027  -0.003   0.001
 -0.004   0.002  -0.004  -0.024   0.002  -0.008  -0.002   0.003   0.039   0.009   0.042  -0.018  -0.003   0.011   0.004  -0.000
 -0.009  -0.003  -0.006   0.002  -0.027  -0.004  -0.003  -0.005   0.009   0.040   0.042  -0.007  -0.018   0.003   0.014   0.001
  0.027   0.025   0.000  -0.016  -0.027  -0.029  -0.029  -0.009   0.042   0.042   1.051  -0.256   0.070   0.027   0.018  -0.010
  0.013   0.015   0.002  -0.008  -0.014  -0.002  -0.002   0.006  -0.018  -0.007  -0.256   0.113  -0.044  -0.022  -0.018   0.004
  0.004   0.004   0.003   0.007   0.007   0.005   0.002  -0.015  -0.003  -0.018   0.070  -0.044   0.044  -0.012  -0.010  -0.003
  0.004  -0.007  -0.002   0.001  -0.008   0.001   0.027   0.027   0.011   0.003   0.027  -0.022  -0.012   0.058   0.012   0.000
 -0.010  -0.001   0.000  -0.006  -0.006   0.040   0.004  -0.003   0.004   0.014   0.018  -0.018  -0.010   0.012   0.078   0.000
 -0.003  -0.004   0.007   0.000   0.012  -0.000  -0.000   0.001  -0.000   0.001  -0.010   0.004  -0.003   0.000   0.000   0.000
  0.000  -0.012  -0.006  -0.002   0.000  -0.000  -0.001  -0.001  -0.001  -0.000  -0.004   0.002   0.000  -0.003  -0.001   0.000
 -0.012   0.000   0.002  -0.004  -0.003  -0.002  -0.000   0.000  -0.000  -0.001  -0.003   0.002   0.000  -0.001  -0.004   0.000


------------------------ aborting loop because EDIFF is reached ----------------------------------------


    CHARGE:  cpu time    0.3026: real time    0.3029
    FORLOC:  cpu time    0.0446: real time    0.0446
    FORNL :  cpu time    0.9873: real time    1.1396
    STRESS:  cpu time    2.9303: real time    2.9373
    FORCOR:  cpu time    0.6468: real time    0.6542
    FORHAR:  cpu time    0.1620: real time    0.1625
    MIXING:  cpu time    0.0332: real time    0.0332
    OFIELD:  cpu time    0.0002: real time    0.0020

  FORCE on cell =-STRESS in cart. coord.  units (eV):
  Direction    XX          YY          ZZ          XY          YZ          ZX
  --------------------------------------------------------------------------------------
  Alpha Z    28.75748    28.75748    28.75748
  Ewald   11157.83583 12198.36571 10303.67122  -153.32438 -1058.64276  2044.25649
  Hartree 16740.51580 17653.25325 16095.15097  -164.21276  -951.69791  1819.44774
  E(xc)    -985.35809  -985.06097  -985.94693     0.11259    -0.22837     0.56583
  Local  -28811.53041-30764.89171-27315.43579   318.89513  2009.28689 -3862.24099
  n-local -1159.08501 -1158.39378 -1159.21845    -0.24188    -0.27705     0.72305
  augment   703.53584   703.45811   704.49473    -0.35645     0.29884    -0.50924
  Kinetic  2321.70441  2321.06177  2325.05415    -0.93285     1.17534    -2.19362
  Fock        0.00000     0.00000     0.00000     0.00000     0.00000     0.00000
  -------------------------------------------------------------------------------------
  Total      -3.62415    -3.45014    -3.47263    -0.06060    -0.08503     0.04926
  in kB      -0.32537    -0.30975    -0.31177    -0.00544    -0.00763     0.00442
  external pressure =       -0.32 kB  Pullay stress =        0.00 kB


 VOLUME and BASIS-vectors are now :
 -----------------------------------------------------------------------------
  energy-cutoff  :      400.00
  volume of cell :    17845.78
      direct lattice vectors                 reciprocal lattice vectors
    26.377620919  0.000000000  0.000000000     0.037910925  0.000000000  0.000000000
     0.000000000 26.736971857  0.000000000     0.000000000  0.037401393  0.000000000
     0.000000000  0.000000000 25.303909478     0.000000000  0.000000000  0.039519585

  length of vectors
    26.377620919 26.736971857 25.303909478     0.037910925  0.037401393  0.039519585


 FORCES acting on ions
    electron-ion (+dipol)            ewald-force                    non-local-force                 convergence-correction
 -----------------------------------------------------------------------------------------------
   0.398E+03 0.996E+03 0.472E+03   -.398E+03 -.994E+03 -.472E+03   -.317E+00 -.219E+01 -.799E+00   0.753E-04 -.188E-04 0.356E-04
   -.442E+03 -.108E+04 -.119E+03   0.441E+03 0.108E+04 0.119E+03   0.167E+01 0.444E+01 0.303E+00   0.616E-04 0.475E-04 0.680E-04
   0.118E+03 -.936E+03 0.697E+03   -.118E+03 0.933E+03 -.695E+03   -.262E+00 0.325E+01 -.187E+01   0.874E-05 0.910E-04 -.422E-04
   0.962E+03 -.600E+03 0.309E+03   -.959E+03 0.599E+03 -.308E+03   -.313E+01 0.160E+01 -.130E+01   -.965E-04 0.442E-04 -.210E-04
   0.366E+03 -.182E+03 -.117E+04   -.364E+03 0.181E+03 0.116E+04   -.108E+01 0.748E+00 0.426E+01   -.649E-04 -.750E-04 0.193E-03
   0.951E+03 0.367E+03 0.582E+03   -.947E+03 -.366E+03 -.580E+03   -.395E+01 -.131E+01 -.237E+01   -.587E-04 -.107E-03 -.632E-04
   -.802E+03 -.477E+03 0.642E+03   0.800E+03 0.476E+03 -.641E+03   0.218E+01 0.976E+00 -.352E+00   0.118E-03 -.981E-04 -.423E-05
   0.173E+03 -.379E+02 0.107E+04   -.172E+03 0.385E+02 -.107E+04   -.112E+01 -.584E+00 -.880E+00   0.102E-04 -.940E-04 0.407E-04
   -.509E+03 0.113E+04 -.269E+02   0.508E+03 -.112E+04 0.264E+02   0.130E+01 -.289E+01 0.510E+00   -.367E-04 0.220E-03 0.386E-04
   -.122E+04 0.163E+03 -.189E+02   0.122E+04 -.163E+03 0.190E+02   0.362E+01 0.131E-01 -.333E-01   -.425E-04 -.841E-04 -.355E-04
   0.104E+04 0.133E+03 -.420E+03   -.104E+04 -.132E+03 0.419E+03   -.191E+01 -.134E+01 0.580E+00   0.200E-04 -.802E-04 0.125E-03
   -.591E+03 0.434E+03 -.992E+03   0.589E+03 -.433E+03 0.989E+03   0.173E+01 -.144E+01 0.233E+01   -.936E-04 -.147E-04 -.199E-03
   0.464E+03 0.918E+03 -.684E+03   -.462E+03 -.916E+03 0.682E+03   -.177E+01 -.259E+01 0.180E+01   0.467E-04 0.284E-04 0.624E-04
   -.605E+03 0.520E+03 0.949E+03   0.603E+03 -.518E+03 -.946E+03   0.200E+01 -.206E+01 -.341E+01   0.202E-03 -.129E-03 -.804E-04
   -.698E+03 -.576E+03 -.744E+03   0.697E+03 0.575E+03 0.742E+03   0.139E+01 0.669E+00 0.178E+01   -.876E-05 -.661E-04 0.147E-04
   0.464E+03 -.861E+03 -.489E+03   -.464E+03 0.860E+03 0.489E+03   0.577E+00 0.144E+01 0.359E+00   0.653E-04 -.337E-05 0.619E-04
   -.701E+02 0.944E+02 -.643E+02   0.698E+02 -.940E+02 0.641E+02   0.322E+00 -.475E+00 0.281E+00   0.120E-03 -.169E-03 0.101E-03
 -----------------------------------------------------------------------------------------------
   -.129E+01 0.171E+01 -.118E+01   -.185E-12 -.682E-12 -.142E-12   0.127E+01 -.173E+01 0.120E+01   0.326E-03 -.507E-03 0.296E-03
 
 
 POSITION                                       TOTAL-FORCE (eV/Angst)
 -----------------------------------------------------------------------------------
     15.35011     14.22033     14.20200         0.046433      0.154700      0.049527
     17.73413     20.36315     15.52970        -0.049602     -0.085505     -0.041807
     15.95317     19.67557     13.42425         0.018915     -0.098049      0.134901
     13.53645     18.43316     14.13756         0.089468     -0.079664      0.001004
     15.72365     16.92582     18.16666         0.066597     -0.054661     -0.137406
     13.15685     15.72176     13.37683         0.085794      0.050477      0.057064
     18.19231     18.05394     13.94055        -0.150495     -0.036528      0.119934
     15.66960     16.92672     12.86275        -0.001121      0.005874      0.155058
     17.87337     13.62618     15.59249        -0.081560      0.141325      0.015183
     19.53447     16.02093     15.57366        -0.169856     -0.004726      0.022002
     13.88163     16.38794     16.03401         0.155343      0.031364     -0.088274
     18.07898     15.32966     17.97877        -0.085756      0.061343     -0.160918
     15.50636     14.21640     17.13594         0.100374      0.112229     -0.064563
     17.93228     15.27906     13.27276        -0.078765      0.059437      0.126708
     18.20146     18.14383     17.13091        -0.107417     -0.082456     -0.111286
     15.38867     18.91957     16.20085         0.111746     -0.079089     -0.113185
     16.70605     16.28450     15.60676         0.049902     -0.096072      0.036058
 -----------------------------------------------------------------------------------
    total drift:                               -0.016856     -0.015467      0.016250


--------------------------------------------------------------------------------------------------------



  FREE ENERGIE OF THE ION-ELECTRON SYSTEM (eV)
  ---------------------------------------------------
  free  energy   TOTEN  =       -35.20451732 eV

  energy  without entropy=      -35.17630784  energy(sigma->0) =      -35.19041258
 


--------------------------------------------------------------------------------------------------------


    POTLOK:  cpu time    0.4802: real time    0.4822


--------------------------------------------------------------------------------------------------------




--------------------------------------------------------------------------------------------------------


    WAVPRE:  cpu time    0.1087: real time    0.1162
    FEWALD:  cpu time    0.0006: real time    0.0011

 real space projection operators:
  total allocation   :       3860.30 KBytes
  max/ min on nodes  :        298.97        180.14

    ORTHCH:  cpu time    0.4060: real time    0.4068
     LOOP+:  cpu time   91.4910: real time   95.6118


--------------------------------------- Iteration      2(   1)  ---------------------------------------


    POTLOK:  cpu time    0.5546: real time    0.6586
    SETDIJ:  cpu time    0.0019: real time    0.0019
     EDDAV:  cpu time    3.5750: real time    3.5919
       DOS:  cpu time    0.0004: real time    0.0004
    CHARGE:  cpu time    0.3021: real time    0.3027
    MIXING:  cpu time    0.0142: real time    0.0142
    --------------------------------------------
[...]
  alpha Z        PSCENC =        28.75747972
  Ewald energy   TEWEN  =     34162.23481271
  -Hartree energ DENC   =    -50984.78145301
  -exchange      EXHF   =         0.00000000
  -V(xc)+E(xc)   XCENC  =      -199.00067550
  PAW double counting   =     14783.56459150   -14019.87184631
  entropy T*S    EENTRO =        -0.02820948
  eigenvalues    EBANDS =     -1442.00682836
  atomic energy  EATOM  =     17635.87358239
  Solvation  Ediel_sol  =         0.00000000
  ---------------------------------------------------
  free energy    TOTEN  =       -35.25854634 eV

  energy without entropy =      -35.23033686  energy(sigma->0) =      -35.24444160


--------------------------------------------------------------------------------------------------------




--------------------------------------- Iteration     28(   3)  ---------------------------------------


    POTLOK:  cpu time    0.4841: real time    0.4867
    SETDIJ:  cpu time    0.0019: real time    0.0019
    EDDIAG:  cpu time    0.7071: real time    0.7181
  RMM-DIIS:  cpu time    1.4512: real time    1.6457
    ORTHCH:  cpu time    0.0551: real time    0.0556
       DOS:  cpu time    0.0004: real time    0.0004
    --------------------------------------------
      LOOP:  cpu time    2.6997: real time    2.9083

 eigenvalue-minimisations  :   118
 total energy-change (2. order) : 0.5125148E-06  (-0.1563733E-05)
 number of electron     187.0000111 magnetization 
 augmentation part       90.1943674 magnetization 

 Free energy of the ion-electron system (eV)
  ---------------------------------------------------
  alpha Z        PSCENC =        28.75747972
  Ewald energy   TEWEN  =     34162.23481271
  -Hartree energ DENC   =    -50984.77096753
  -exchange      EXHF   =         0.00000000
  -V(xc)+E(xc)   XCENC  =      -199.00081338
  PAW double counting   =     14783.59578333   -14019.90526965
  entropy T*S    EENTRO =        -0.02820948
  eigenvalues    EBANDS =     -1442.01494395
  atomic energy  EATOM  =     17635.87358239
  Solvation  Ediel_sol  =         0.00000000
  ---------------------------------------------------
  free energy    TOTEN  =       -35.25854583 eV

  energy without entropy =      -35.23033635  energy(sigma->0) =      -35.24444109


--------------------------------------------------------------------------------------------------------




 average (electrostatic) potential at core
  the test charge radii are     1.1249
  (the norm of the test charge is              1.0000)
       1 -48.2464       2 -48.0546       3 -48.0388       4 -48.0382       5 -48.3738
       6 -48.0534       7 -48.2825       8 -48.1415       9 -48.2037      10 -48.2796
      11 -48.2829      12 -48.2039      13 -48.2786      14 -48.3756      15 -48.2453
      16 -48.1403      17 -48.7720
 
 
 
 E-fermi :  -3.9976     XC(G=0):  -0.3943     alpha+bet : -0.1387


 k-point     1 :       0.0000    0.0000    0.0000
  band No.  band energies     occupation 
      1      -9.9987      2.00000
      2      -9.6523      2.00000
      3      -9.5927      2.00000
      4      -9.5852      2.00000
      5      -9.4856      2.00000
      6      -9.4570      2.00000
      7      -9.0361      2.00000
      8      -8.9906      2.00000
      9      -8.9182      2.00000
     10      -8.8966      2.00000
     11      -8.8841      2.00000
     12      -8.8489      2.00000
     13      -8.8031      2.00000
     14      -8.8005      2.00000
     15      -8.7403      2.00000
     16      -8.7319      2.00000
     17      -8.6980      2.00000
     18      -8.6817      2.00000
     19      -8.6472      2.00000
     20      -8.6420      2.00000
     21      -8.6355      2.00000
     22      -8.6171      2.00000
     23      -8.5569      2.00000
     24      -8.5365      2.00000
     25      -8.5132      2.00000
     26      -8.4682      2.00000
     27      -8.3903      2.00000
     28      -8.3882      2.00000
     29      -8.3066      2.00000
     30      -8.2547      2.00000
     31      -8.2542      2.00000
     32      -8.2464      2.00000
     33      -8.2123      2.00000
     34      -8.2084      2.00000
     35      -8.0816      2.00000
     36      -8.0805      2.00000
     37      -8.0565      2.00000
     38      -8.0010      2.00000
     39      -7.9976      2.00000
     40      -7.9840      2.00000
     41      -7.9321      2.00000
     42      -7.8813      2.00000
     43      -7.8601      2.00000
     44      -7.8405      2.00000
     45      -7.8046      2.00000
     46      -7.6496      2.00000
     47      -7.6214      2.00000
     48      -7.5684      2.00000
     49      -7.5306      2.00000
     50      -7.4942      2.00000
     51      -7.4848      2.00000
     52      -7.4678      2.00000
     53      -7.4332      2.00000
     54      -7.4299      2.00000
     55      -7.3962      2.00000
     56      -7.3839      2.00000
     57      -7.3761      2.00000
     58      -7.3483      2.00000
     59      -7.3378      2.00000
     60      -7.3222      2.00000
     61      -7.2982      2.00000
     62      -7.2724      2.00000
     63      -7.2667      2.00000
     64      -7.2412      2.00000
     65      -7.2244      2.00000
     66      -7.2180      2.00000
     67      -7.1760      2.00000
     68      -7.1693      2.00000
     69      -7.1642      2.00000
     70      -7.1401      2.00000
     71      -7.1290      2.00000
     72      -7.0982      2.00000
     73      -7.0661      2.00000
     74      -7.0605      2.00000
     75      -7.0559      2.00000
     76      -7.0322      2.00000
     77      -6.9669      2.00000
     78      -6.9342      2.00000
     79      -6.9105      2.00000
     80      -6.9037      2.00000
     81      -6.8857      2.00000
     82      -6.8390      2.00000
     83      -6.7949      2.00000
     84      -6.7345      2.00000
     85      -6.7256      2.00000
     86      -6.6886      2.00000
     87      -6.6293      2.00000
     88      -6.4372      2.00000
     89      -6.1887      2.00000
     90      -4.9954      2.00000
     91      -4.8422      2.00000
     92      -4.6089      2.00000
     93      -4.2678      2.00000
     94      -3.9976      1.00000
     95      -3.5043      0.00000
     96      -2.8603      0.00000
     97      -2.8129      0.00000
     98      -2.5222      0.00000
     99      -2.5198      0.00000
    100      -2.3922      0.00000
    101      -2.3427      0.00000
    102      -1.9186      0.00000
    103      -1.6817      0.00000
    104      -1.6131      0.00000
    105      -1.4842      0.00000
    106      -0.9120      0.00000
    107      -0.8138      0.00000
    108      -0.7345      0.00000
    109      -0.7268      0.00000
    110      -0.6460      0.00000
    111      -0.4481      0.00000
    112      -0.3260      0.00000


--------------------------------------------------------------------------------------------------------


 soft charge-density along one line, spin component           1
         0         1         2         3         4         5         6         7         8         9
 total charge-density along one line
 
 pseudopotential strength for first ion, spin component:           1
-15.789  -0.004   0.004  -0.004   0.003   0.824   0.001  -0.001
 -0.004 -15.791  -0.002  -0.005   0.005   0.001   0.824   0.000
  0.004  -0.002 -15.784   0.001  -0.001  -0.001   0.000   0.824
 -0.004  -0.005   0.001 -15.786  -0.002   0.001   0.001  -0.000
  0.003   0.005  -0.001  -0.002 -15.789  -0.000  -0.001   0.000
  0.824   0.001  -0.001   0.001  -0.000   0.326  -0.000   0.000
  0.001   0.824   0.000   0.001  -0.001  -0.000   0.326  -0.000
 -0.001   0.000   0.824  -0.000   0.000   0.000  -0.000   0.326
  0.001   0.001  -0.000   0.824   0.000  -0.000  -0.000   0.000
 -0.000  -0.001   0.000   0.000   0.824   0.000   0.000  -0.000
 -0.000   0.000  -0.001   0.002   0.001  -0.000  -0.000  -0.000
 -0.000  -0.000   0.000  -0.000   0.000   0.000   0.000   0.000
 -0.004  -0.006   0.012   0.001   0.021   0.001   0.001  -0.002
  0.001  -0.021  -0.007  -0.004  -0.000  -0.000   0.004   0.002
 -0.021   0.001   0.002  -0.007  -0.004   0.004  -0.000  -0.001
  0.002   0.004  -0.008  -0.000  -0.013  -0.000  -0.001   0.001
 -0.000   0.013   0.005   0.002   0.000   0.000  -0.003  -0.001
  0.013  -0.000  -0.002   0.004   0.003  -0.003   0.000   0.000
 total augmentation occupancy for first ion, spin component:           1
  1.968  -0.005  -0.004   0.002   0.006  -0.026   0.010   0.003  -0.002  -0.008   0.027   0.013   0.004   0.003  -0.010  -0.002
 -0.005   1.964   0.004   0.001  -0.001   0.010  -0.026  -0.003   0.002  -0.002   0.024   0.015   0.004  -0.006  -0.001  -0.004
 -0.004   0.004   1.971   0.003   0.006   0.003  -0.003  -0.033  -0.003  -0.006   0.001   0.001   0.003  -0.003   0.000   0.007
  0.002   0.001   0.003   1.961   0.001  -0.002   0.002  -0.003  -0.022   0.003  -0.016  -0.007   0.007   0.001  -0.005   0.001
  0.006  -0.001   0.006   0.001   1.966  -0.008  -0.002  -0.006   0.003  -0.026  -0.026  -0.015   0.006  -0.007  -0.006   0.012
 -0.026   0.010   0.003  -0.002  -0.008   0.057   0.008   0.001  -0.007  -0.004  -0.030  -0.002   0.006   0.001   0.043  -0.000
  0.010  -0.026  -0.003   0.002  -0.002   0.008   0.042   0.007  -0.002  -0.004  -0.026  -0.004   0.003   0.030   0.004  -0.000
  0.003  -0.003  -0.033  -0.003  -0.006   0.001   0.007   0.045   0.003  -0.004  -0.011   0.008  -0.016   0.028  -0.004   0.001
 -0.002   0.002  -0.003  -0.022   0.003  -0.007  -0.002   0.003   0.041   0.010   0.041  -0.019  -0.003   0.011   0.005  -0.000
 -0.008  -0.002  -0.006   0.003  -0.026  -0.004  -0.004  -0.004   0.010   0.044   0.038  -0.005  -0.021   0.003   0.014   0.001
  0.027   0.024   0.001  -0.016  -0.026  -0.030  -0.026  -0.011   0.041   0.038   1.055  -0.267   0.076   0.026   0.018  -0.010
  0.013   0.015   0.001  -0.007  -0.015  -0.002  -0.004   0.008  -0.019  -0.005  -0.267   0.121  -0.048  -0.024  -0.019   0.004
  0.004   0.004   0.003   0.007   0.006   0.006   0.003  -0.016  -0.003  -0.021   0.076  -0.048   0.048  -0.011  -0.011  -0.003
  0.003  -0.006  -0.003   0.001  -0.007   0.001   0.030   0.028   0.011   0.003   0.026  -0.024  -0.011   0.062   0.012   0.000
 -0.010  -0.001   0.000  -0.005  -0.006   0.043   0.004  -0.004   0.005   0.014   0.018  -0.019  -0.011   0.012   0.082   0.000
 -0.002  -0.004   0.007   0.001   0.012  -0.000  -0.000   0.001  -0.000   0.001  -0.010   0.004  -0.003   0.000   0.000   0.000
  0.000  -0.012  -0.005  -0.002   0.000  -0.000  -0.002  -0.001  -0.001  -0.000  -0.004   0.002   0.000  -0.003  -0.001   0.000
 -0.012   0.001   0.001  -0.003  -0.002  -0.002  -0.000   0.000  -0.001  -0.001  -0.003   0.002   0.000  -0.001  -0.004   0.000


------------------------ aborting loop because EDIFF is reached ----------------------------------------


    CHARGE:  cpu time    0.2975: real time    0.3002
    FORLOC:  cpu time    0.0442: real time    0.0442
    FORNL :  cpu time    0.9481: real time    1.1317
    STRESS:  cpu time    2.9057: real time    3.1511
    FORCOR:  cpu time    0.5012: real time    0.5060
    FORHAR:  cpu time    0.1609: real time    0.1645
    MIXING:  cpu time    0.0134: real time    0.0134
    OFIELD:  cpu time    0.0001: real time    0.0001

  FORCE on cell =-STRESS in cart. coord.  units (eV):
  Direction    XX          YY          ZZ          XY          YZ          ZX
  --------------------------------------------------------------------------------------
  Alpha Z    28.75748    28.75748    28.75748
  Ewald   11343.16892 12554.48060 10264.57413  -155.08244 -1190.13484  2267.52138
  Hartree 16919.44024 17987.49497 16077.75168  -163.52174 -1067.18447  2016.46843
  E(xc)    -985.87109  -985.54586  -986.51437     0.09536    -0.26499     0.61732
  Local  -29177.07526-31456.68009-27260.87138   319.77742  2255.95948 -4282.29264
  n-local -1155.15158 -1154.48913 -1155.34925    -0.18271    -0.22736     0.73036
  augment   703.76061   703.71328   704.88212    -0.30096     0.38131    -0.57757
  Kinetic  2322.09525  2321.35340  2325.84901    -0.77188     1.45976    -2.46606
  Fock        0.00000     0.00000     0.00000     0.00000     0.00000     0.00000
  -------------------------------------------------------------------------------------
  Total      -0.87544    -0.91535    -0.92057     0.01306    -0.01111     0.00122
  in kB      -0.07860    -0.08218    -0.08265     0.00117    -0.00100     0.00011
  external pressure =       -0.08 kB  Pullay stress =        0.00 kB


 VOLUME and BASIS-vectors are now :
 -----------------------------------------------------------------------------
  energy-cutoff  :      400.00
  volume of cell :    17845.78
      direct lattice vectors                 reciprocal lattice vectors
    26.377620919  0.000000000  0.000000000     0.037910925  0.000000000  0.000000000
     0.000000000 26.736971857  0.000000000     0.000000000  0.037401393  0.000000000
     0.000000000  0.000000000 25.303909478     0.000000000  0.000000000  0.039519585

  length of vectors
    26.377620919 26.736971857 25.303909478     0.037910925  0.037401393  0.039519585


 FORCES acting on ions
    electron-ion (+dipol)            ewald-force                    non-local-force                 convergence-correction
 -----------------------------------------------------------------------------------------------
   0.416E+03 0.101E+04 0.480E+03   -.416E+03 -.101E+04 -.479E+03   -.256E+00 -.223E+01 -.667E+00   0.113E-01 -.838E-04 0.112E-01
   -.447E+03 -.110E+04 -.120E+03   0.445E+03 0.110E+04 0.120E+03   0.169E+01 0.460E+01 0.323E+00   -.448E-01 -.235E-01 -.165E-01
   0.123E+03 -.952E+03 0.717E+03   -.122E+03 0.948E+03 -.715E+03   -.315E+00 0.336E+01 -.202E+01   0.126E-01 0.832E-03 0.371E-01
   0.983E+03 -.615E+03 0.301E+03   -.980E+03 0.614E+03 -.299E+03   -.329E+01 0.170E+01 -.132E+01   0.144E-01 0.101E-01 0.106E-01
   0.381E+03 -.198E+03 -.119E+04   -.379E+03 0.197E+03 0.118E+04   -.127E+01 0.699E+00 0.435E+01   0.361E-02 -.339E-02 -.155E-01
   0.965E+03 0.366E+03 0.598E+03   -.961E+03 -.365E+03 -.595E+03   -.405E+01 -.127E+01 -.248E+01   0.279E-02 0.234E-01 -.116E-01
   -.810E+03 -.484E+03 0.648E+03   0.808E+03 0.483E+03 -.648E+03   0.196E+01 0.863E+00 -.223E+00   -.125E-02 -.171E-01 -.119E-01
   0.179E+03 -.443E+02 0.108E+04   -.178E+03 0.448E+02 -.107E+04   -.121E+01 -.480E+00 -.418E+00   -.341E-01 -.693E-02 0.149E-01
   -.511E+03 0.115E+04 -.160E+02   0.510E+03 -.115E+04 0.154E+02   0.121E+01 -.291E+01 0.629E+00   0.161E-01 0.790E-02 -.117E-01
   -.125E+04 0.171E+03 -.938E+01   0.124E+04 -.171E+03 0.947E+01   0.365E+01 -.460E-01 -.606E-01   -.757E-02 -.101E-01 -.303E-01
   0.105E+04 0.136E+03 -.422E+03   -.105E+04 -.135E+03 0.422E+03   -.168E+01 -.124E+01 0.484E+00   0.969E-02 -.523E-02 0.747E-02
   -.607E+03 0.435E+03 -.101E+04   0.605E+03 -.433E+03 0.101E+04   0.184E+01 -.143E+01 0.220E+01   0.183E-01 0.443E-02 0.721E-02
   0.473E+03 0.930E+03 -.706E+03   -.471E+03 -.927E+03 0.704E+03   -.177E+01 -.263E+01 0.182E+01   0.160E-01 0.918E-02 0.104E-01
   -.610E+03 0.521E+03 0.979E+03   0.608E+03 -.519E+03 -.975E+03   0.220E+01 -.197E+01 -.349E+01   -.426E-01 -.387E-02 0.213E-02
   -.716E+03 -.591E+03 -.754E+03   0.715E+03 0.591E+03 0.753E+03   0.145E+01 0.539E+00 0.178E+01   0.114E-01 0.160E-01 -.807E-02
   0.463E+03 -.865E+03 -.486E+03   -.464E+03 0.863E+03 0.486E+03   0.763E+00 0.116E+01 -.297E-01   -.161E-01 0.709E-02 0.118E-01
   -.900E+02 0.127E+03 -.836E+02   0.896E+02 -.127E+03 0.833E+02   0.376E+00 -.545E+00 0.372E+00   0.422E-01 -.280E-01 -.775E-02
 -----------------------------------------------------------------------------------------------
   -.131E+01 0.188E+01 -.124E+01   -.853E-13 0.341E-12 -.625E-12   0.130E+01 -.183E+01 0.125E+01   0.121E-01 -.191E-01 -.638E-03
 
 
 POSITION                                       TOTAL-FORCE (eV/Angst)
 -----------------------------------------------------------------------------------
     15.32118     14.26563     14.22583        -0.004297     -0.001971     -0.001097
     17.73437     20.40072     15.51048         0.004532      0.003245      0.005776
     15.93907     19.69696     13.42555        -0.007443     -0.003967     -0.001679
     13.51666     18.44882     14.13627        -0.001127     -0.003178     -0.001951
     15.74365     16.93022     18.13459         0.002694     -0.001010      0.000743
     13.13107     15.74213     13.35296        -0.004041      0.000788      0.003980
     18.12422     18.05740     14.02236         0.000373      0.000965     -0.004945
     15.64476     16.94014     12.97887         0.001965      0.005857      0.000189
     17.85659     13.61396     15.58139        -0.000057     -0.003126      0.001705
     19.52841     15.99952     15.57306         0.004406     -0.000881      0.002977
     13.95546     16.37494     15.96002        -0.000030      0.000024     -0.000902
     18.08829     15.33208     17.97236         0.003036      0.001751      0.000007
     15.52953     14.21191     17.16256         0.001263     -0.000911     -0.002250
     17.90025     15.29562     13.29286         0.001342      0.001311     -0.007323
     18.19020     18.14427     17.07600        -0.000866     -0.000358     -0.001052
     15.46784     18.86039     16.11456        -0.000183     -0.000812      0.000105
     16.74803     16.21382     15.64675        -0.001568      0.002275      0.005716
 -----------------------------------------------------------------------------------
    total drift:                               -0.002588      0.034566      0.011210


--------------------------------------------------------------------------------------------------------



  FREE ENERGIE OF THE ION-ELECTRON SYSTEM (eV)
  ---------------------------------------------------
  free  energy   TOTEN  =       -35.25854583 eV

  energy  without entropy=      -35.23033635  energy(sigma->0) =      -35.24444109
 
 d Force = 0.2954039E-04[-0.502E-04, 0.109E-03]  d Energy = 0.5656232E-04-0.270E-04
 d Force =-0.4725715E+01[-0.473E+01,-0.473E+01]  d Ewald  =-0.4725715E+01-0.359E-06


--------------------------------------------------------------------------------------------------------


    POTLOK:  cpu time    0.5215: real time    0.6298


--------------------------------------------------------------------------------------------------------


 Conjugate gradient step on ions:
 trial-energy change:   -0.000057  1 .order   -0.000030   -0.000109    0.000050
  (g-gl).g = 0.264E-04      g.g   = 0.331E-04  gl.gl    = 0.575E-04
 g(Force)  = 0.331E-04   g(Stress)= 0.000E+00 ortho     =-0.537E-05
 gamma     =   0.45949
 trial     =   3.56875
 opt step  =   2.44517  (harmonic =   2.44517) maximal distance =0.00118327
 next E    =   -35.258527   (d E  =  -0.00004)


--------------------------------------------------------------------------------------------------------


  
 reached required accuracy - stopping structural energy minimisation
     LOOP+:  cpu time   16.5579: real time   17.9886
    4ORBIT:  cpu time    0.0000: real time    0.0000

 total amount of memory used by VASP MPI-rank0   112253. kBytes
=======================================================================

   base      :      30000. kBytes
   nonlr-proj:        810. kBytes
   fftplans  :      26221. kBytes
   grid      :      37013. kBytes
   one-center:         31. kBytes
   wavefun   :      18178. kBytes
 
  
  
 General timing and accounting informations for this job:
 ========================================================
  
                  Total CPU time used (sec):      748.398
                            User time (sec):      730.037
                          System time (sec):       18.360
                         Elapsed time (sec):      788.665
  
                   Maximum memory used (kb):      235112.
                   Average memory used (kb):           0.
  
                          Minor page faults:      1154254
                          Major page faults:            0
                 Voluntary context switches:         1390
