<?xml version="1.0" encoding="ISO-8859-1"?>
<modeling>
 <generator>
  <i name="program" type="string">vasp </i>
  <i name="version" type="string">5.4.4.18Apr17-6-g9f103f2a35  </i>
  <i name="subversion" type="string">(build Jun 19 2019 11:58:18) complex            parallel </i>
  <i name="platform" type="string">LinuxIFC </i>
  <i name="date" type="string">2022 07 17 </i>
  <i name="time" type="string">11:57:05 </i>
 </generator>
 <incar>
  <i type="string" name="SYSTEM"> BLACK</i>
  <i type="int" name="ISTART">     0</i>
  <i type="string" name="PREC">normal</i>
  <i type="string" name="ALGO"> Fast</i>
  <i type="int" name="ICHARG">     2</i>
  <i type="int" name="NELM">   200</i>
  <i type="int" name="NELMIN">     2</i>
  <i type="int" name="IBRION">     2</i>
  <i name="EDIFF">      0.00001000</i>
  <i name="EDIFFG">     -0.01000000</i>
  <i type="int" name="NSW">  1000</i>
  <i type="int" name="ISIF">     2</i>
  <i type="int" name="ISYM">     2</i>
  <i name="ENCUT">    400.00000000</i>
  <i type="string" name="LREAL"> auto</i>
  <i type="int" name="ISMEAR">     0</i>
  <i name="SIGMA">      0.05000000</i>
  <i type="int" name="NWRITE">     2</i>
  <i type="logical" name="LWAVE"> F  </i>
  <i type="logical" name="LCHARG"> F  </i>
  <v type="int" name="KPOINT_BSE">    -1     0     0     0</v>
  <i type="int" name="NELM">   200</i>
  <i type="string" name="GGA"> PE</i>
 </incar>
 <structure name="primitive_cell" >
  <crystal>
   <varray name="basis" >
    <v>      26.37762092       0.00000000       0.00000000 </v>
    <v>       0.00000000      26.73697186       0.00000000 </v>
    <v>       0.00000000       0.00000000      25.30390948 </v>
   </varray>
   <i name="volume">  17845.77720609 </i>
   <varray name="rec_basis" >
    <v>       0.03791092       0.00000000       0.00000000 </v>
    <v>       0.00000000       0.03740139       0.00000000 </v>
    <v>       0.00000000       0.00000000       0.03951958 </v>
   </varray>
  </crystal>
  <varray name="positions" >
   <v>      -0.41806295      -0.46813990      -0.43874272 </v>
   <v>       0.49878830      -0.41198411      -0.47135313 </v>
   <v>      -0.36665805      -0.39093703      -0.38322716 </v>
   <v>      -0.41213938      -0.46828665      -0.32279460 </v>
   <v>      -0.32017050      -0.42854205      -0.47546601 </v>
   <v>      -0.32240405      -0.49036192      -0.38379120 </v>
   <v>      -0.40595102      -0.36691725      -0.49166941 </v>
   <v>      -0.47373449      -0.38706834      -0.36634259 </v>
   <v>      -0.48682083      -0.31057409      -0.44128953 </v>
   <v>      -0.25943019      -0.40079484      -0.38453555 </v>
   <v>      -0.31031264      -0.32475754      -0.44907543 </v>
   <v>      -0.31460914      -0.42664941      -0.28948660 </v>
   <v>      -0.40390192      -0.36695075      -0.28206111 </v>
   <v>      -0.41660126      -0.29238177      -0.35974920 </v>
   <v>      -0.39520054      -0.26410609      -0.46947908 </v>
   <v>      -0.30996571      -0.32139533      -0.32299340 </v>
   <v>      -0.32768282      -0.23838979      -0.38627273 </v>
  </varray>
 </structure>
 <varray name="primitive_index" >
  <v type="int" >        1 </v>
  <v type="int" >        6 </v>
  <v type="int" >       17 </v>
  <v type="int" >       13 </v>
  <v type="int" >       14 </v>
  <v type="int" >        9 </v>
  <v type="int" >        8 </v>
  <v type="int" >       11 </v>
  <v type="int" >        4 </v>
  <v type="int" >       10 </v>
  <v type="int" >        7 </v>
  <v type="int" >       12 </v>
  <v type="int" >        5 </v>
  <v type="int" >       16 </v>
  <v type="int" >        3 </v>
  <v type="int" >       15 </v>
  <v type="int" >        2 </v>
 </varray>
 <kpoints>
  <generation param="Gamma">
   <v type="int" name="divisions">       1        1        1 </v>
   <v name="usershift">      0.00000000       0.00000000       0.00000000 </v>
   <v name="genvec1">      1.00000000       0.00000000       0.00000000 </v>
   <v name="genvec2">      0.00000000       1.00000000       0.00000000 </v>
   <v name="genvec3">      0.00000000       0.00000000       1.00000000 </v>
   <v name="shift">      0.00000000       0.00000000       0.00000000 </v>
  </generation>
  <varray name="kpointlist" >
   <v>       0.00000000       0.00000000       0.00000000 </v>
  </varray>
  <varray name="weights" >
   <v>       1.00000000 </v>
  </varray>
 </kpoints>
 <parameters>
  <separator name="general" >
   <i type="string" name="SYSTEM">BLACK</i>
   <i type="logical" name="LCOMPAT"> F  </i>
  </separator>
  <separator name="electronic" >
   <i type="string" name="PREC">normal</i>
   <i name="ENMAX">    400.00000000</i>
   <i name="ENAUG">    412.49600000</i>
   <i name="EDIFF">      0.00001000</i>
   <i type="int" name="IALGO">    68</i>
   <i type="int" name="IWAVPR">    11</i>
   <i type="int" name="NBANDS">   112</i>
   <i name="NELECT">    187.00000000</i>
   <i type="int" name="TURBO">     0</i>
   <i type="int" name="IRESTART">     0</i>
   <i type="int" name="NREBOOT">     0</i>
   <i type="int" name="NMIN">     0</i>
   <i name="EREF">      0.00000000</i>
   <separator name="electronic smearing" >
    <i type="int" name="ISMEAR">     0</i>
    <i name="SIGMA">      0.05000000</i>
    <i name="KSPACING">      0.50000000</i>
    <i type="logical" name="KGAMMA"> T  </i>
   </separator>
   <separator name="electronic projectors" >
    <i type="logical" name="LREAL"> T  </i>
    <v name="ROPT">     -0.00050000</v>
    <i type="int" name="LMAXPAW">  -100</i>
    <i type="int" name="LMAXMIX">     2</i>
    <i type="logical" name="NLSPLINE"> F  </i>
   </separator>
   <separator name="electronic startup" >
    <i type="int" name="ISTART">     0</i>
    <i type="int" name="ICHARG">     2</i>
    <i type="int" name="INIWAV">     1</i>
   </separator>
   <separator name="electronic spin" >
    <i type="int" name="ISPIN">     1</i>
    <i type="logical" name="LNONCOLLINEAR"> F  </i>
    <v name="MAGMOM">      1.00000000      1.00000000      1.00000000      1.00000000      1.00000000      1.00000000      1.00000000      1.00000000      1.00000000      1.00000000      1.00000000      1.00000000      1.00000000      1.00000000      1.00000000      1.00000000      1.00000000</v>
    <i name="NUPDOWN">     -1.00000000</i>
    <i type="logical" name="LSORBIT"> F  </i>
    <v name="SAXIS">      0.00000000      0.00000000      1.00000000</v>
    <i type="logical" name="LSPIRAL"> F  </i>
    <v name="QSPIRAL">      0.00000000      0.00000000      0.00000000</v>
    <i type="logical" name="LZEROZ"> F  </i>
   </separator>
   <separator name="electronic exchange-correlation" >
    <i type="logical" name="LASPH"> F  </i>
    <i type="logical" name="LMETAGGA"> F  </i>
   </separator>
   <separator name="electronic convergence" >
    <i type="int" name="NELM">   200</i>
    <i type="int" name="NELMDL">    -5</i>
    <i type="int" name="NELMIN">     2</i>
    <i name="ENINI">    400.00000000</i>
    <separator name="electronic convergence detail" >
     <i type="logical" name="LDIAG"> T  </i>
     <i type="logical" name="LSUBROT"> F  </i>
     <i name="WEIMIN">      0.00100000</i>
     <i name="EBREAK">      0.00000002</i>
     <i name="DEPER">      0.30000000</i>
     <i type="int" name="NRMM">     4</i>
     <i name="TIME">      0.40000000</i>
    </separator>
   </separator>
   <separator name="electronic mixer" >
    <i name="AMIX">      0.40000000</i>
    <i name="BMIX">      1.00000000</i>
    <i name="AMIN">      0.10000000</i>
    <i name="AMIX_MAG">      1.60000000</i>
    <i name="BMIX_MAG">      1.00000000</i>
    <separator name="electronic mixer details" >
     <i type="int" name="IMIX">     4</i>
     <i type="logical" name="MIXFIRST"> F  </i>
     <i type="int" name="MAXMIX">   -45</i>
     <i name="WC">    100.00000000</i>
     <i type="int" name="INIMIX">     1</i>
     <i type="int" name="MIXPRE">     1</i>
     <i type="int" name="MREMOVE">     5</i>
    </separator>
   </separator>
   <separator name="electronic dipolcorrection" >
    <i type="logical" name="LDIPOL"> F  </i>
    <i type="logical" name="LMONO"> F  </i>
    <i type="int" name="IDIPOL">     0</i>
    <i name="EPSILON">      1.00000000</i>
    <v name="DIPOL">   -100.00000000   -100.00000000   -100.00000000</v>
    <i name="EFIELD">      0.00000000</i>
   </separator>
  </separator>
  <separator name="grids" >
   <i type="int" name="NGX">   140</i>
   <i type="int" name="NGY">   140</i>
   <i type="int" name="NGZ">   126</i>
   <i type="int" name="NGXF">   280</i>
   <i type="int" name="NGYF">   280</i>
   <i type="int" name="NGZF">   252</i>
   <i type="logical" name="ADDGRID"> F  </i>
  </separator>
  <separator name="ionic" >
   <i type="int" name="NSW">  1000</i>
   <i type="int" name="IBRION">     2</i>
   <i type="int" name="MDALGO">     0</i>
   <i type="int" name="ISIF">     2</i>
   <i name="PSTRESS">      0.00000000</i>
   <i name="EDIFFG">     -0.01000000</i>
   <i type="int" name="NFREE">     1</i>
   <i name="POTIM">      0.50000000</i>
   <i name="SMASS">     -3.00000000</i>
   <i name="SCALEE">      1.00000000</i>
  </separator>
  <separator name="ionic md" >
   <i name="TEBEG">      0.00010000</i>
   <i name="TEEND">      0.00010000</i>
   <i type="int" name="NBLOCK">     1</i>
   <i type="int" name="KBLOCK">  1000</i>
   <i type="int" name="NPACO">   256</i>
   <i name="APACO">     16.00000000</i>
  </separator>
  <separator name="symmetry" >
   <i type="int" name="ISYM">     2</i>
   <i name="SYMPREC">      0.00001000</i>
  </separator>
  <separator name="dos" >
   <i type="int" name="LORBIT">     0</i>
   <v name="RWIGS">     -1.00000000</v>
   <i type="int" name="NEDOS">   301</i>
   <i name="EMIN">     10.00000000</i>
   <i name="EMAX">    -10.00000000</i>
   <i name="EFERMI">      0.00000000</i>
  </separator>
  <separator name="writing" >
   <i type="int" name="NWRITE">     2</i>
   <i type="logical" name="LWAVE"> F  </i>
   <i type="logical" name="LDOWNSAMPLE"> F  </i>
   <i type="logical" name="LCHARG"> F  </i>
   <i type="logical" name="LPARD"> F  </i>
   <i type="logical" name="LVTOT"> F  </i>
   <i type="logical" name="LVHAR"> F  </i>
   <i type="logical" name="LELF"> F  </i>
   <i type="logical" name="LOPTICS"> F  </i>
   <v name="STM">      0.00000000      0.00000000      0.00000000      0.00000000      0.00000000      0.00000000      0.00000000</v>
  </separator>
  <separator name="performance" >
   <i type="int" name="NPAR">     2</i>
   <i type="int" name="NSIM">     4</i>
   <i type="int" name="NBLK">    -1</i>
   <i type="logical" name="LPLANE"> T  </i>
   <i type="logical" name="LSCALAPACK"> T  </i>
   <i type="logical" name="LSCAAWARE"> F  </i>
   <i type="logical" name="LSCALU"> F  </i>
   <i type="logical" name="LASYNC"> F  </i>
   <i type="logical" name="LORBITALREAL"> F  </i>
  </separator>
  <separator name="miscellaneous" >
   <i type="int" name="IDIOT">     3</i>
   <i type="int" name="ISPECIAL">     0</i>
   <i type="logical" name="LMUSIC"> F  </i>
   <v name="POMASS">    107.86800000</v>
   <v name="DARWINR">      0.00000000</v>
   <v name="DARWINV">      1.00000000</v>
   <i type="logical" name="LCORR"> T  </i>
  </separator>
  <i type="logical" name="GGA_COMPAT"> T  </i>
  <i type="logical" name="LBERRY"> F  </i>
  <i type="int" name="ICORELEVEL">     0</i>
  <i type="logical" name="LDAU"> F  </i>
  <i type="int" name="I_CONSTRAINED_M">     0</i>
  <separator name="electronic exchange-correlation" >
   <i type="string" name="GGA">PE</i>
   <i type="int" name="VOSKOWN">     0</i>
   <i type="logical" name="LHFCALC"> F  </i>
   <i type="string" name="PRECFOCK"></i>
   <i type="logical" name="LSYMGRAD"> F  </i>
   <i type="logical" name="LHFONE"> F  </i>
   <i type="logical" name="LRHFCALC"> F  </i>
   <i type="logical" name="LTHOMAS"> F  </i>
   <i type="logical" name="LMODELHF"> F  </i>
   <i name="ENCUT4O">     -1.00000000</i>
   <i type="int" name="EXXOEP">     0</i>
   <i type="int" name="FOURORBIT">     0</i>
   <i name="AEXX">      0.00000000</i>
   <i name="HFALPHA">      0.00000000</i>
   <i name="MCALPHA">      0.00000000</i>
   <i name="ALDAX">      1.00000000</i>
   <i name="AGGAX">      1.00000000</i>
   <i name="ALDAC">      1.00000000</i>
   <i name="AGGAC">      1.00000000</i>
   <i type="int" name="NKREDX">     1</i>
   <i type="int" name="NKREDY">     1</i>
   <i type="int" name="NKREDZ">     1</i>
   <i type="logical" name="SHIFTRED"> F  </i>
   <i type="logical" name="ODDONLY"> F  </i>
   <i type="logical" name="EVENONLY"> F  </i>
   <i type="int" name="LMAXFOCK">     0</i>
   <i type="int" name="NMAXFOCKAE">     0</i>
   <i type="logical" name="LFOCKAEDFT"> F  </i>
   <i name="HFSCREEN">      0.00000000</i>
   <i name="HFSCREENC">      0.00000000</i>
   <i type="int" name="NBANDSGWLOW">     0</i>
  </separator>
  <separator name="vdW DFT" >
   <i type="logical" name="LUSE_VDW"> F  </i>
   <i name="Zab_VDW">     -0.84910000</i>
   <i name="PARAM1">      0.12340000</i>
   <i name="PARAM2">      1.00000000</i>
   <i name="PARAM3">      0.00000000</i>
  </separator>
  <separator name="model GW" >
   <i type="int" name="MODEL_GW">     0</i>
   <i name="MODEL_EPS0">    629.85096022</i>
   <i name="MODEL_ALPHA">      1.00000000</i>
  </separator>
  <separator name="linear response parameters" >
   <i type="logical" name="LEPSILON"> F  </i>
   <i type="logical" name="LRPA"> F  </i>
   <i type="logical" name="LNABLA"> F  </i>
   <i type="logical" name="LVEL"> F  </i>
   <i type="int" name="KINTER">     0</i>
   <i name="CSHIFT">      0.10000000</i>
   <i name="OMEGAMAX">     -1.00000000</i>
   <i name="DEG_THRESHOLD">      0.00200000</i>
   <i name="RTIME">     -0.10000000</i>
   <i name="WPLASMAI">      0.00000000</i>
   <v name="DFIELD">      0.00000000      0.00000000      0.00000000</v>
   <v name="WPLASMA">      0.00000000      0.00000000      0.00000000      0.00000000      0.00000000      0.00000000      0.00000000      0.00000000      0.00000000</v>
  </separator>
  <separator name="orbital magnetization" >
   <i type="logical" name="NUCIND"> F  </i>
   <v name="MAGPOS">      0.00000000      0.00000000      0.00000000</v>
   <i type="logical" name="LNICSALL"> T  </i>
   <i type="logical" name="ORBITALMAG"> F  </i>
   <i type="logical" name="LMAGBLOCH"> F  </i>
   <i type="logical" name="LCHIMAG"> F  </i>
   <i type="logical" name="LGAUGE"> T  </i>
   <i type="int" name="MAGATOM">     0</i>
   <v name="MAGDIPOL">      0.00000000      0.00000000      0.00000000</v>
   <v name="AVECCONST">      0.00000000      0.00000000      0.00000000</v>
  </separator>
  <separator name="response functions" >
   <i type="logical" name="LADDER"> F  </i>
   <i type="logical" name="LRPAFORCE"> F  </i>
   <i type="logical" name="LFXC"> F  </i>
   <i type="logical" name="LHARTREE"> T  </i>
   <i type="int" name="IBSE">     0</i>
   <v type="int" name="KPOINT">    -1     0     0     0</v>
   <i type="logical" name="LTCTE"> F  </i>
   <i type="logical" name="LTETE"> F  </i>
   <i type="logical" name="LTRIPLET"> F  </i>
   <i type="logical" name="LFXCEPS"> F  </i>
   <i type="logical" name="LFXHEG"> F  </i>
   <i type="int" name="NATURALO">     2</i>
   <i type="logical" name="L2ORDER"> F  </i>
   <i type="logical" name="LMP2LT"> F  </i>
   <i type="logical" name="LUSEW"> F  </i>
   <i name="ENCUTGW">     -2.00000000</i>
   <i name="ENCUTGWSOFT">     -2.00000000</i>
   <i name="ENCUTLF">     -1.00000000</i>
   <i type="int" name="LMAXMP2">    -1</i>
   <i name="SCISSOR">      0.00000000</i>
   <i type="int" name="NOMEGA">     0</i>
   <i type="int" name="NOMEGAR">     0</i>
   <i type="int" name="NBANDSGW">    -1</i>
   <i type="int" name="NBANDSO">    -1</i>
   <i type="int" name="NBANDSV">    -1</i>
   <i type="int" name="NELM">   200</i>
   <i type="int" name="NELMHF">     1</i>
   <i type="int" name="DIM">     3</i>
   <i type="int" name="ANTIRES">     0</i>
   <i name="OMEGAMAX">    -30.00000000</i>
   <i name="OMEGAMIN">    -30.00000000</i>
   <i name="OMEGATL">   -200.00000000</i>
   <i type="int" name="OMEGAGRID">   140</i>
   <i name="CSHIFT">     -0.10000000</i>
   <i type="logical" name="SELFENERGY"> F  </i>
   <i type="logical" name="LSPECTRAL"> F  </i>
   <i type="logical" name="LSPECTRALGW"> F  </i>
   <i type="logical" name="LSINGLES"> F  </i>
   <i type="logical" name="LFERMIGW"> F  </i>
   <i type="logical" name="ODDONLYGW"> F  </i>
   <i type="logical" name="EVENONLYGW"> F  </i>
   <i type="int" name="NKREDLFX">     1</i>
   <i type="int" name="NKREDLFY">     1</i>
   <i type="int" name="NKREDLFZ">     1</i>
   <i type="int" name="MAXMEM">  2800</i>
   <i type="int" name="TELESCOPE">     0</i>
   <i type="int" name="TAUPAR">     1</i>
   <i type="int" name="OMEGAPAR">    -1</i>
   <i name="LAMBDA">      1.00000000</i>
  </separator>
  <separator name="External order field" >
   <i name="OFIELD_KAPPA">      0.00000000</i>
   <v name="OFIELD_K">      0.00000000      0.00000000      0.00000000</v>
   <i name="OFIELD_Q6_NEAR">      0.00000000</i>
   <i name="OFIELD_Q6_FAR">      0.00000000</i>
   <i name="OFIELD_A">      0.00000000</i>
  </separator>
 </parameters>
 <atominfo>
  <atoms>      17 </atoms>
  <types>       1 </types>
  <array name="atoms" >
   <dimension dim="1">ion</dimension>
   <field type="string">element</field>
   <field type="int">atomtype</field>
   <set>
    <rc><c>Ag</c><c>   1</c></rc>
    <rc><c>Ag</c><c>   1</c></rc>
    <rc><c>Ag</c><c>   1</c></rc>
    <rc><c>Ag</c><c>   1</c></rc>
    <rc><c>Ag</c><c>   1</c></rc>
    <rc><c>Ag</c><c>   1</c></rc>
    <rc><c>Ag</c><c>   1</c></rc>
    <rc><c>Ag</c><c>   1</c></rc>
    <rc><c>Ag</c><c>   1</c></rc>
    <rc><c>Ag</c><c>   1</c></rc>
    <rc><c>Ag</c><c>   1</c></rc>
    <rc><c>Ag</c><c>   1</c></rc>
    <rc><c>Ag</c><c>   1</c></rc>
    <rc><c>Ag</c><c>   1</c></rc>
    <rc><c>Ag</c><c>   1</c></rc>
    <rc><c>Ag</c><c>   1</c></rc>
    <rc><c>Ag</c><c>   1</c></rc>
   </set>
  </array>
  <array name="atomtypes" >
   <dimension dim="1">type</dimension>
   <field type="int">atomspertype</field>
   <field type="string">element</field>
   <field>mass</field>
   <field>valence</field>
   <field type="string">pseudopotential</field>
   <set>
    <rc><c>  17</c><c>Ag</c><c>    107.86800000</c><c>     11.00000000</c><c> PAW_PBE Ag 06Sep2000                   </c></rc>
   </set>
  </array>
 </atominfo>
 <structure name="initialpos" >
  <crystal>
   <varray name="basis" >
    <v>      26.37762092       0.00000000       0.00000000 </v>
    <v>       0.00000000      26.73697186       0.00000000 </v>
    <v>       0.00000000       0.00000000      25.30390948 </v>
   </varray>
   <i name="volume">  17845.77720609 </i>
   <varray name="rec_basis" >
    <v>       0.03791092       0.00000000       0.00000000 </v>
    <v>       0.00000000       0.03740139       0.00000000 </v>
    <v>       0.00000000       0.00000000       0.03951958 </v>
   </varray>
  </crystal>
  <varray name="positions" >
   <v>       0.58193705       0.53186010       0.56125728 </v>
   <v>       0.67231718       0.76161021       0.61372727 </v>
   <v>       0.60479946       0.73589391       0.53052092 </v>
   <v>       0.51317917       0.68942591       0.55871047 </v>
   <v>       0.59609808       0.63304925       0.71793889 </v>
   <v>       0.49878830       0.58801589       0.52864687 </v>
   <v>       0.68968736       0.67524246       0.55092457 </v>
   <v>       0.59404898       0.63308275       0.50833059 </v>
   <v>       0.67759595       0.50963808       0.61620880 </v>
   <v>       0.74056981       0.59920516       0.61546445 </v>
   <v>       0.52626551       0.61293166       0.63365741 </v>
   <v>       0.68539086       0.57335059       0.71051340 </v>
   <v>       0.58786062       0.53171335       0.67720540 </v>
   <v>       0.67982950       0.57145795       0.52453399 </v>
   <v>       0.69003429       0.67860467       0.67700660 </v>
   <v>       0.58339874       0.70761823       0.64025080 </v>
   <v>       0.63334195       0.60906297       0.61677284 </v>
  </varray>
 </structure>
 <calculation>
  <scstep>
   <time name="dav">    3.99    4.13</time>
   <time name="total">    4.48    4.64</time>
   <energy>
    <i name="alphaZ">     28.75747972 </i>
    <i name="ewald">  33659.88398527 </i>
    <i name="hartreedc"> -50482.09336724 </i>
    <i name="XCdc">   -195.60537012 </i>
    <i name="pawpsdc">  14801.37630017 </i>
    <i name="pawaedc"> -14012.58914770 </i>
    <i name="eentropy">     -0.06219913 </i>
    <i name="bandstr">    188.29422240 </i>
    <i name="atom">  17635.87358239 </i>
    <i name="e_fr_energy">   1623.83548577 </i>
    <i name="e_wo_entrp">   1623.89768489 </i>
    <i name="e_0_energy">   1623.86658533 </i>
   </energy>
  </scstep>
  <scstep>
   <time name="dav">    5.76    5.97</time>
   <time name="total">    5.76    5.97</time>
   <energy>
    <i name="e_fr_energy">    872.73348281 </i>
    <i name="e_wo_entrp">    872.81064802 </i>
    <i name="e_0_energy">    872.77206542 </i>
   </energy>
  </scstep>
  <scstep>
   <time name="dav">    5.12    5.34</time>
   <time name="total">    5.12    5.34</time>
   <energy>
    <i name="e_fr_energy">    172.10532575 </i>
    <i name="e_wo_entrp">    172.13353587 </i>
    <i name="e_0_energy">    172.11943081 </i>
   </energy>
  </scstep>
  <scstep>
   <time name="dav">    4.31    4.54</time>
   <time name="total">    4.31    4.54</time>
   <energy>
    <i name="e_fr_energy">    -18.64017511 </i>
    <i name="e_wo_entrp">    -18.61196563 </i>
    <i name="e_0_energy">    -18.62607037 </i>
   </energy>
  </scstep>
  <scstep>
   <time name="dav">    3.78    4.00</time>
   <time name="total">    4.12    4.36</time>
   <energy>
    <i name="e_fr_energy">    -37.32259896 </i>
    <i name="e_wo_entrp">    -37.29438948 </i>
    <i name="e_0_energy">    -37.30849422 </i>
   </energy>
  </scstep>
  <scstep>
   <time name="diag">    0.71    0.71</time>
   <time name="diis">    2.56    2.77</time>
   <time name="orth">    0.06    0.06</time>
   <time name="total">    4.11    4.33</time>
   <energy>
    <i name="e_fr_energy">    -35.41615543 </i>
    <i name="e_wo_entrp">    -35.38794595 </i>
    <i name="e_0_energy">    -35.40205069 </i>
   </energy>
  </scstep>
  <scstep>
   <time name="diag">    0.74    0.74</time>
   <time name="diis">    2.55    2.72</time>
   <time name="orth">    0.06    0.06</time>
   <time name="total">    4.14    4.30</time>
   <energy>
    <i name="e_fr_energy">    -35.23345305 </i>
    <i name="e_wo_entrp">    -35.20524357 </i>
    <i name="e_0_energy">    -35.21934831 </i>
   </energy>
  </scstep>
  <scstep>
   <time name="diag">    0.71    0.71</time>
   <time name="diis">    2.52    2.53</time>
   <time name="orth">    0.10    0.21</time>
   <time name="total">    4.12    4.23</time>
   <energy>
    <i name="e_fr_energy">    -35.19931429 </i>
    <i name="e_wo_entrp">    -35.17110481 </i>
    <i name="e_0_energy">    -35.18520955 </i>
   </energy>
  </scstep>
  <scstep>
   <time name="diag">    0.71    0.71</time>
   <time name="diis">    2.56    2.56</time>
   <time name="orth">    0.05    0.05</time>
   <time name="total">    4.18    4.32</time>
   <energy>
    <i name="e_fr_energy">    -35.19348040 </i>
    <i name="e_wo_entrp">    -35.16527092 </i>
    <i name="e_0_energy">    -35.17937566 </i>
   </energy>
  </scstep>
  <scstep>
   <time name="diag">    0.73    0.86</time>
   <time name="diis">    2.53    2.54</time>
   <time name="orth">    0.05    0.05</time>
   <time name="total">    4.19    4.39</time>
   <energy>
    <i name="e_fr_energy">    -35.19346038 </i>
    <i name="e_wo_entrp">    -35.16525090 </i>
    <i name="e_0_energy">    -35.17935564 </i>
   </energy>
  </scstep>
  <scstep>
   <time name="diag">    0.78    0.88</time>
   <time name="diis">    2.56    2.67</time>
   <time name="orth">    0.05    0.05</time>
   <time name="total">    4.20    4.41</time>
   <energy>
    <i name="e_fr_energy">    -35.19499706 </i>
    <i name="e_wo_entrp">    -35.16678758 </i>
    <i name="e_0_energy">    -35.18089232 </i>
   </energy>
  </scstep>
  <scstep>
   <time name="diag">    0.72    0.73</time>
   <time name="diis">    2.57    2.73</time>
   <time name="orth">    0.06    0.06</time>
   <time name="total">    4.18    4.45</time>
   <energy>
    <i name="e_fr_energy">    -35.19715333 </i>
    <i name="e_wo_entrp">    -35.16894385 </i>
    <i name="e_0_energy">    -35.18304859 </i>
   </energy>
  </scstep>
  <scstep>
   <time name="diag">    0.71    0.72</time>
   <time name="diis">    2.77    3.04</time>
   <time name="orth">    0.06    0.06</time>
   <time name="total">    4.35    4.61</time>
   <energy>
    <i name="e_fr_energy">    -35.20026803 </i>
    <i name="e_wo_entrp">    -35.17205855 </i>
    <i name="e_0_energy">    -35.18616329 </i>
   </energy>
  </scstep>
  <scstep>
   <time name="diag">    0.72    0.72</time>
   <time name="diis">    2.03    2.11</time>
   <time name="orth">    0.05    0.10</time>
   <time name="total">    3.60    3.74</time>
   <energy>
    <i name="e_fr_energy">    -35.20212401 </i>
    <i name="e_wo_entrp">    -35.17391453 </i>
    <i name="e_0_energy">    -35.18801927 </i>
   </energy>
  </scstep>
  <scstep>
   <time name="diag">    0.74    0.85</time>
   <time name="diis">    1.73    1.73</time>
   <time name="orth">    0.06    0.06</time>
   <time name="total">    3.35    3.46</time>
   <energy>
    <i name="e_fr_energy">    -35.20331797 </i>
    <i name="e_wo_entrp">    -35.17510849 </i>
    <i name="e_0_energy">    -35.18921323 </i>
   </energy>
  </scstep>
  <scstep>
   <time name="diag">    0.76    0.87</time>
   <time name="diis">    1.67    1.82</time>
   <time name="orth">    0.06    0.06</time>
   <time name="total">    3.29    3.55</time>
   <energy>
    <i name="e_fr_energy">    -35.20383213 </i>
    <i name="e_wo_entrp">    -35.17562265 </i>
    <i name="e_0_energy">    -35.18972739 </i>
   </energy>
  </scstep>
  <scstep>
   <time name="diag">    0.71    0.71</time>
   <time name="diis">    1.63    1.65</time>
   <time name="orth">    0.09    0.15</time>
   <time name="total">    3.24    3.32</time>
   <energy>
    <i name="e_fr_energy">    -35.20421030 </i>
    <i name="e_wo_entrp">    -35.17600082 </i>
    <i name="e_0_energy">    -35.19010556 </i>
   </energy>
  </scstep>
  <scstep>
   <time name="diag">    0.80    0.91</time>
   <time name="diis">    1.61    1.63</time>
   <time name="orth">    0.06    0.06</time>
   <time name="total">    3.27    3.40</time>
   <energy>
    <i name="e_fr_energy">    -35.20434829 </i>
    <i name="e_wo_entrp">    -35.17613881 </i>
    <i name="e_0_energy">    -35.19024355 </i>
   </energy>
  </scstep>
  <scstep>
   <time name="diag">    0.70    0.74</time>
   <time name="diis">    1.63    1.90</time>
   <time name="orth">    0.06    0.06</time>
   <time name="total">    3.20    3.52</time>
   <energy>
    <i name="e_fr_energy">    -35.20445588 </i>
    <i name="e_wo_entrp">    -35.17624640 </i>
    <i name="e_0_energy">    -35.19035114 </i>
   </energy>
  </scstep>
  <scstep>
   <time name="diag">    0.72    0.72</time>
   <time name="diis">    1.29    1.29</time>
   <time name="orth">    0.06    0.06</time>
   <time name="total">    2.88    2.89</time>
   <energy>
    <i name="e_fr_energy">    -35.20449220 </i>
    <i name="e_wo_entrp">    -35.17628272 </i>
    <i name="e_0_energy">    -35.19038746 </i>
   </energy>
  </scstep>
  <scstep>
   <time name="diag">    0.71    0.71</time>
   <time name="diis">    1.27    1.36</time>
   <time name="orth">    0.06    0.06</time>
   <time name="total">    2.88    3.08</time>
   <energy>
    <i name="e_fr_energy">    -35.20451178 </i>
    <i name="e_wo_entrp">    -35.17630230 </i>
    <i name="e_0_energy">    -35.19040704 </i>
   </energy>
  </scstep>
  <scstep>
   <time name="diag">    0.71    0.71</time>
   <time name="diis">    1.14    1.15</time>
   <time name="orth">    0.06    0.06</time>
   <time name="total">    2.42    2.43</time>
   <energy>
    <i name="alphaZ">     28.75747972 </i>
    <i name="ewald">  33659.88398527 </i>
    <i name="hartreedc"> -50488.91472785 </i>
    <i name="XCdc">   -199.62841394 </i>
    <i name="pawpsdc">  14767.43020967 </i>
    <i name="pawaedc"> -14002.37995897 </i>
    <i name="eentropy">     -0.02820948 </i>
    <i name="bandstr">  -1436.19846414 </i>
    <i name="atom">  17635.87358239 </i>
    <i name="e_fr_energy">    -35.20451732 </i>
    <i name="e_wo_entrp">    -35.17630784 </i>
    <i name="e_0_energy">    -35.19041258 </i>
   </energy>
  </scstep>
  <structure>
   <crystal>
    <varray name="basis" >
     <v>      26.37762092       0.00000000       0.00000000 </v>
     <v>       0.00000000      26.73697186       0.00000000 </v>
     <v>       0.00000000       0.00000000      25.30390948 </v>
    </varray>
    <i name="volume">  17845.77720609 </i>
    <varray name="rec_basis" >
     <v>       0.03791092       0.00000000       0.00000000 </v>
     <v>       0.00000000       0.03740139       0.00000000 </v>
     <v>       0.00000000       0.00000000       0.03951958 </v>
    </varray>
   </crystal>
   <varray name="positions" >
    <v>       0.58193705       0.53186010       0.56125728 </v>
    <v>       0.67231718       0.76161021       0.61372727 </v>
    <v>       0.60479946       0.73589391       0.53052092 </v>
    <v>       0.51317917       0.68942591       0.55871047 </v>
    <v>       0.59609808       0.63304925       0.71793889 </v>
    <v>       0.49878830       0.58801589       0.52864687 </v>
    <v>       0.68968736       0.67524246       0.55092457 </v>
    <v>       0.59404898       0.63308275       0.50833059 </v>
    <v>       0.67759595       0.50963808       0.61620880 </v>
    <v>       0.74056981       0.59920516       0.61546445 </v>
    <v>       0.52626551       0.61293166       0.63365741 </v>
    <v>       0.68539086       0.57335059       0.71051340 </v>
    <v>       0.58786062       0.53171335       0.67720540 </v>
    <v>       0.67982950       0.57145795       0.52453399 </v>
    <v>       0.69003429       0.67860467       0.67700660 </v>
    <v>       0.58339874       0.70761823       0.64025080 </v>
    <v>       0.63334195       0.60906297       0.61677284 </v>
   </varray>
  </structure>
  <varray name="forces" >
   <v>       0.04643296       0.15470043       0.04952737 </v>
   <v>      -0.04960154      -0.08550483      -0.04180732 </v>
   <v>       0.01891517      -0.09804857       0.13490086 </v>
   <v>       0.08946766      -0.07966414       0.00100401 </v>
   <v>       0.06659682      -0.05466141      -0.13740620 </v>
   <v>       0.08579402       0.05047668       0.05706436 </v>
   <v>      -0.15049513      -0.03652837       0.11993369 </v>
   <v>      -0.00112134       0.00587384       0.15505770 </v>
   <v>      -0.08156021       0.14132480       0.01518296 </v>
   <v>      -0.16985583      -0.00472556       0.02200226 </v>
   <v>       0.15534330       0.03136440      -0.08827365 </v>
   <v>      -0.08575597       0.06134302      -0.16091804 </v>
   <v>       0.10037406       0.11222912      -0.06456314 </v>
   <v>      -0.07876491       0.05943705       0.12670775 </v>
   <v>      -0.10741721      -0.08245586      -0.11128560 </v>
   <v>       0.11174624      -0.07908897      -0.11318464 </v>
   <v>       0.04990191      -0.09607161       0.03605763 </v>
  </varray>
  <varray name="stress" >
   <v>      -0.32537316      -0.00544079       0.00442247 </v>
   <v>      -0.00544079      -0.30975020      -0.00763387 </v>
   <v>       0.00442247      -0.00763387      -0.31176915 </v>
  </varray>
  <energy>
   <i name="e_fr_energy">    -35.20451732 </i>
   <i name="e_wo_entrp">    -35.19041258 </i>
   <i name="e_0_energy">     -0.02820948 </i>
  </energy>
  <time name="totalsc">   91.49   95.61</time>
 </calculation>
 <calculation>
  <scstep>
   <time name="dav">    3.58    3.59</time>
   <time name="total">    4.45    4.57</time>
   <energy>
    <i name="alphaZ">     28.75747972 </i>
    <i name="ewald">  33802.29410562 </i>
    <i name="hartreedc"> -50630.49290439 </i>
    <i name="XCdc">   -199.41319871 </i>
    <i name="pawpsdc">  14767.43343925 </i>
    <i name="pawaedc"> -14002.38262600 </i>
    <i name="eentropy">     -0.02820948 </i>
    <i name="bandstr">  -1437.26139519 </i>
    <i name="atom">  17635.87358239 </i>
    <i name="e_fr_energy">    -35.21972678 </i>
    <i name="e_wo_entrp">    -35.19151730 </i>
    <i name="e_0_energy">    -35.20562204 </i>
   </energy>
  </scstep>
  <scstep>
   <time name="diag">    0.84    0.94</time>
   <time name="diis">    2.50    2.53</time>
   <time name="orth">    0.06    0.06</time>
   <time name="total">    4.38    4.51</time>
   <energy>
    <i name="e_fr_energy">    -35.22302924 </i>
    <i name="e_wo_entrp">    -35.19481976 </i>
    <i name="e_0_energy">    -35.20892450 </i>
   </energy>
  </scstep>
  <scstep>
   <time name="diag">    0.75    0.75</time>
   <time name="diis">    2.56    2.69</time>
   <time name="orth">    0.06    0.06</time>
   <time name="total">    4.16    4.31</time>
   <energy>
    <i name="e_fr_energy">    -35.22300406 </i>
    <i name="e_wo_entrp">    -35.19479458 </i>
    <i name="e_0_energy">    -35.20889932 </i>
   </energy>
  </scstep>
  <scstep>
   <time name="diag">    0.86    0.87</time>
   <time name="diis">    2.55    2.84</time>
   <time name="orth">    0.06    0.07</time>
   <time name="total">    4.28    4.58</time>
   <energy>
    <i name="e_fr_energy">    -35.22291572 </i>
    <i name="e_wo_entrp">    -35.19470624 </i>
    <i name="e_0_energy">    -35.20881098 </i>
   </energy>
  </scstep>
  <scstep>
   <time name="diag">    0.71    0.71</time>
   <time name="diis">    2.84    2.86</time>
   <time name="orth">    0.06    0.06</time>
   <time name="total">    4.41    4.44</time>
   <energy>
    <i name="e_fr_energy">    -35.22294318 </i>
    <i name="e_wo_entrp">    -35.19473370 </i>
    <i name="e_0_energy">    -35.20883844 </i>
   </energy>
  </scstep>
  <scstep>
   <time name="diag">    0.71    0.71</time>
   <time name="diis">    2.04    2.11</time>
   <time name="orth">    0.06    0.06</time>
   <time name="total">    3.61    3.69</time>
   <energy>
    <i name="e_fr_energy">    -35.22293272 </i>
    <i name="e_wo_entrp">    -35.19472324 </i>
    <i name="e_0_energy">    -35.20882798 </i>
   </energy>
  </scstep>
  <scstep>
   <time name="diag">    0.71    0.71</time>
   <time name="diis">    1.47    1.48</time>
   <time name="orth">    0.06    0.06</time>
   <time name="total">    2.76    2.95</time>
   <energy>
    <i name="alphaZ">     28.75747972 </i>
    <i name="ewald">  33802.29410562 </i>
    <i name="hartreedc"> -50629.05361126 </i>
    <i name="XCdc">   -199.45656012 </i>
    <i name="pawpsdc">  14772.03480329 </i>
    <i name="pawaedc"> -14007.39122935 </i>
    <i name="eentropy">     -0.02820948 </i>
    <i name="bandstr">  -1438.25329684 </i>
    <i name="atom">  17635.87358239 </i>
    <i name="e_fr_energy">    -35.22293601 </i>
    <i name="e_wo_entrp">    -35.19472653 </i>
    <i name="e_0_energy">    -35.20883127 </i>
   </energy>
  </scstep>
  <structure>
   <crystal>
    <varray name="basis" >
     <v>      26.37762092       0.00000000       0.00000000 </v>
     <v>       0.00000000      26.73697186       0.00000000 </v>
     <v>       0.00000000       0.00000000      25.30390948 </v>
    </varray>
    <i name="volume">  17845.77720609 </i>
    <varray name="rec_basis" >
     <v>       0.03791092       0.00000000       0.00000000 </v>
     <v>       0.00000000       0.03740139       0.00000000 </v>
     <v>       0.00000000       0.00000000       0.03951958 </v>
    </varray>
   </crystal>
   <varray name="positions" >
    <v>       0.58202197       0.53213923       0.56135171 </v>
    <v>       0.67222647       0.76145593       0.61364757 </v>
    <v>       0.60483406       0.73571700       0.53077812 </v>
    <v>       0.51334280       0.68928217       0.55871238 </v>
    <v>       0.59621988       0.63295063       0.71767692 </v>
    <v>       0.49894521       0.58810696       0.52875566 </v>
    <v>       0.68941211       0.67517655       0.55115323 </v>
    <v>       0.59404693       0.63309335       0.50862621 </v>
    <v>       0.67744678       0.50989308       0.61623775 </v>
    <v>       0.74025916       0.59919664       0.61550640 </v>
    <v>       0.52654962       0.61298825       0.63348912 </v>
    <v>       0.68523402       0.57346127       0.71020660 </v>
    <v>       0.58804420       0.53191585       0.67708231 </v>
    <v>       0.67968544       0.57156519       0.52477556 </v>
    <v>       0.68983783       0.67845589       0.67679443 </v>
    <v>       0.58360312       0.70747553       0.64003501 </v>
    <v>       0.63343321       0.60888962       0.61684159 </v>
   </varray>
  </structure>
  <varray name="forces" >
   <v>       0.02855818       0.12294214       0.02858395 </v>
   <v>      -0.02846306      -0.05897217      -0.02996114 </v>
   <v>       0.00775827      -0.06059896       0.10542816 </v>
   <v>       0.06302660      -0.05592069      -0.00345303 </v>
   <v>       0.04422590      -0.02726724      -0.08797145 </v>
   <v>       0.05725256       0.03690922       0.03894278 </v>
   <v>      -0.11332471      -0.03254355       0.09499051 </v>
   <v>       0.00134220       0.00175713       0.12476606 </v>
   <v>      -0.05939681       0.09057144       0.01360421 </v>
   <v>      -0.10779021      -0.00019629       0.01315892 </v>
   <v>       0.12846743       0.02138133      -0.06970917 </v>
   <v>      -0.05380474       0.03776281      -0.11788639 </v>
   <v>       0.05537262       0.06954713      -0.03416732 </v>
   <v>      -0.05753514       0.04663471       0.08397534 </v>
   <v>      -0.08603362      -0.05577883      -0.09525405 </v>
   <v>       0.09665499      -0.07537539      -0.08773368 </v>
   <v>       0.02368956      -0.06085278       0.02268629 </v>
  </varray>
  <varray name="stress" >
   <v>      -0.25898310      -0.00233350       0.00482888 </v>
   <v>      -0.00233350      -0.24601693      -0.00827557 </v>
   <v>       0.00482888      -0.00827557      -0.25129882 </v>
  </varray>
  <energy>
   <i name="e_fr_energy">    -35.22293601 </i>
   <i name="e_wo_entrp">    -35.20883127 </i>
   <i name="e_0_energy">     -0.02820948 </i>
  </energy>
  <time name="totalsc">   34.20   35.44</time>
 </calculation>
 <calculation>
  <scstep>
   <time name="dav">    3.51    3.67</time>
   <time name="total">    4.30    4.48</time>
   <energy>
    <i name="alphaZ">     28.75747972 </i>
    <i name="ewald">  34036.05249018 </i>
    <i name="hartreedc"> -50861.36805113 </i>
    <i name="XCdc">   -199.10025821 </i>
    <i name="pawpsdc">  14772.07945665 </i>
    <i name="pawaedc"> -14007.43825934 </i>
    <i name="eentropy">     -0.02820948 </i>
    <i name="bandstr">  -1440.05928329 </i>
    <i name="atom">  17635.87358239 </i>
    <i name="e_fr_energy">    -35.23105251 </i>
    <i name="e_wo_entrp">    -35.20284304 </i>
    <i name="e_0_energy">    -35.21694778 </i>
   </energy>
  </scstep>
  <scstep>
   <time name="diag">    0.71    0.71</time>
   <time name="diis">    2.56    2.68</time>
   <time name="orth">    0.05    0.06</time>
   <time name="total">    4.14    4.39</time>
   <energy>
    <i name="e_fr_energy">    -35.23989155 </i>
    <i name="e_wo_entrp">    -35.21168207 </i>
    <i name="e_0_energy">    -35.22578681 </i>
   </energy>
  </scstep>
  <scstep>
   <time name="diag">    0.85    0.87</time>
   <time name="diis">    2.47    2.67</time>
   <time name="orth">    0.06    0.06</time>
   <time name="total">    4.17    4.40</time>
   <energy>
    <i name="e_fr_energy">    -35.23980479 </i>
    <i name="e_wo_entrp">    -35.21159531 </i>
    <i name="e_0_energy">    -35.22570005 </i>
   </energy>
  </scstep>
  <scstep>
   <time name="diag">    0.70    0.71</time>
   <time name="diis">    2.56    2.63</time>
   <time name="orth">    0.06    0.06</time>
   <time name="total">    4.24    4.42</time>
   <energy>
    <i name="e_fr_energy">    -35.23953409 </i>
    <i name="e_wo_entrp">    -35.21132461 </i>
    <i name="e_0_energy">    -35.22542935 </i>
   </energy>
  </scstep>
  <scstep>
   <time name="diag">    0.70    0.71</time>
   <time name="diis">    2.52    2.68</time>
   <time name="orth">    0.06    0.06</time>
   <time name="total">    4.08    4.26</time>
   <energy>
    <i name="e_fr_energy">    -35.23958113 </i>
    <i name="e_wo_entrp">    -35.21137165 </i>
    <i name="e_0_energy">    -35.22547639 </i>
   </energy>
  </scstep>
  <scstep>
   <time name="diag">    0.70    0.85</time>
   <time name="diis">    2.42    2.60</time>
   <time name="orth">    0.07    0.07</time>
   <time name="total">    3.99    4.32</time>
   <energy>
    <i name="e_fr_energy">    -35.23956204 </i>
    <i name="e_wo_entrp">    -35.21135256 </i>
    <i name="e_0_energy">    -35.22545730 </i>
   </energy>
  </scstep>
  <scstep>
   <time name="diag">    0.71    0.71</time>
   <time name="diis">    1.49    1.61</time>
   <time name="orth">    0.06    0.06</time>
   <time name="total">    2.74    2.86</time>
   <energy>
    <i name="alphaZ">     28.75747972 </i>
    <i name="ewald">  34036.05249018 </i>
    <i name="hartreedc"> -50858.91566198 </i>
    <i name="XCdc">   -199.17203463 </i>
    <i name="pawpsdc">  14779.97313773 </i>
    <i name="pawaedc"> -14016.01149890 </i>
    <i name="eentropy">     -0.02820948 </i>
    <i name="bandstr">  -1441.76885555 </i>
    <i name="atom">  17635.87358239 </i>
    <i name="e_fr_energy">    -35.23957051 </i>
    <i name="e_wo_entrp">    -35.21136104 </i>
    <i name="e_0_energy">    -35.22546577 </i>
   </energy>
  </scstep>
  <structure>
   <crystal>
    <varray name="basis" >
     <v>      26.37762092       0.00000000       0.00000000 </v>
     <v>       0.00000000      26.73697186       0.00000000 </v>
     <v>       0.00000000       0.00000000      25.30390948 </v>
    </varray>
    <i name="volume">  17845.77720609 </i>
    <varray name="rec_basis" >
     <v>       0.03791092       0.00000000       0.00000000 </v>
     <v>       0.00000000       0.03740139       0.00000000 </v>
     <v>       0.00000000       0.00000000       0.03951958 </v>
    </varray>
   </crystal>
   <varray name="positions" >
    <v>       0.58216045       0.53259440       0.56150568 </v>
    <v>       0.67207854       0.76120436       0.61351759 </v>
    <v>       0.60489047       0.73542851       0.53119751 </v>
    <v>       0.51360962       0.68904778       0.55871550 </v>
    <v>       0.59641850       0.63278980       0.71724974 </v>
    <v>       0.49920108       0.58825548       0.52893307 </v>
    <v>       0.68896329       0.67506908       0.55152608 </v>
    <v>       0.59404358       0.63311063       0.50910827 </v>
    <v>       0.67720354       0.51030889       0.61628495 </v>
    <v>       0.73975259       0.59918273       0.61557480 </v>
    <v>       0.52701290       0.61308053       0.63321468 </v>
    <v>       0.68497827       0.57364176       0.70970633 </v>
    <v>       0.58834355       0.53224605       0.67688159 </v>
    <v>       0.67945054       0.57174007       0.52516948 </v>
    <v>       0.68951748       0.67821329       0.67644846 </v>
    <v>       0.58393638       0.70724283       0.63968314 </v>
    <v>       0.63358204       0.60860696       0.61695369 </v>
   </varray>
  </structure>
  <varray name="forces" >
   <v>      -0.00082498       0.07171081       0.00539128 </v>
   <v>       0.00737959      -0.00776161      -0.01159836 </v>
   <v>      -0.01536409      -0.00518506       0.04687427 </v>
   <v>       0.01334362      -0.01692905      -0.01469374 </v>
   <v>      -0.00525981       0.01879496      -0.00436117 </v>
   <v>       0.00697858       0.00291051       0.00844828 </v>
   <v>      -0.05468232      -0.01954575       0.05863679 </v>
   <v>       0.01123557      -0.01116515       0.08560522 </v>
   <v>      -0.01457479      -0.00257288       0.00094309 </v>
   <v>      -0.00695654       0.01129425      -0.00234697 </v>
   <v>       0.08286063       0.01245971      -0.05058097 </v>
   <v>       0.00288535      -0.00485881      -0.02249370 </v>
   <v>      -0.00656907       0.00678013       0.01155565 </v>
   <v>      -0.01726272       0.02049224       0.00447268 </v>
   <v>      -0.04728660      -0.01230198      -0.05895710 </v>
   <v>       0.05701382      -0.06550361      -0.04415629 </v>
   <v>      -0.01291624       0.00138130      -0.01273897 </v>
  </varray>
  <varray name="stress" >
   <v>      -0.13989500       0.00085938       0.00830523 </v>
   <v>       0.00085938      -0.12907642      -0.00672722 </v>
   <v>       0.00830524      -0.00672722      -0.14447875 </v>
  </varray>
  <energy>
   <i name="e_fr_energy">    -35.23957051 </i>
   <i name="e_wo_entrp">    -35.22546577 </i>
   <i name="e_0_energy">     -0.02820948 </i>
  </energy>
  <time name="totalsc">   33.65   35.44</time>
 </calculation>
 <calculation>
  <scstep>
   <time name="dav">    3.49    3.62</time>
   <time name="total">    4.34    4.58</time>
   <energy>
    <i name="alphaZ">     28.75747972 </i>
    <i name="ewald">  34151.39390260 </i>
    <i name="hartreedc"> -50973.48679432 </i>
    <i name="XCdc">   -198.99475594 </i>
    <i name="pawpsdc">  14780.04509562 </i>
    <i name="pawaedc"> -14016.08645566 </i>
    <i name="eentropy">     -0.02820948 </i>
    <i name="bandstr">  -1442.71351825 </i>
    <i name="atom">  17635.87358239 </i>
    <i name="e_fr_energy">    -35.23967332 </i>
    <i name="e_wo_entrp">    -35.21146384 </i>
    <i name="e_0_energy">    -35.22556858 </i>
   </energy>
  </scstep>
  <scstep>
   <time name="diag">    0.78    0.83</time>
   <time name="diis">    2.63    2.71</time>
   <time name="orth">    0.06    0.07</time>
   <time name="total">    4.31    4.54</time>
   <energy>
    <i name="e_fr_energy">    -35.24178549 </i>
    <i name="e_wo_entrp">    -35.21357601 </i>
    <i name="e_0_energy">    -35.22768075 </i>
   </energy>
  </scstep>
  <scstep>
   <time name="diag">    0.74    0.74</time>
   <time name="diis">    2.65    2.68</time>
   <time name="orth">    0.06    0.06</time>
   <time name="total">    4.23    4.29</time>
   <energy>
    <i name="e_fr_energy">    -35.24177002 </i>
    <i name="e_wo_entrp">    -35.21356054 </i>
    <i name="e_0_energy">    -35.22766528 </i>
   </energy>
  </scstep>
  <scstep>
   <time name="diag">    0.74    0.76</time>
   <time name="diis">    3.08    3.11</time>
   <time name="orth">    0.06    0.06</time>
   <time name="total">    4.79    4.92</time>
   <energy>
    <i name="e_fr_energy">    -35.24171741 </i>
    <i name="e_wo_entrp">    -35.21350793 </i>
    <i name="e_0_energy">    -35.22761267 </i>
   </energy>
  </scstep>
  <scstep>
   <time name="diag">    0.79    0.87</time>
   <time name="diis">    2.51    2.55</time>
   <time name="orth">    0.06    0.06</time>
   <time name="total">    4.16    4.29</time>
   <energy>
    <i name="e_fr_energy">    -35.24174329 </i>
    <i name="e_wo_entrp">    -35.21353381 </i>
    <i name="e_0_energy">    -35.22763855 </i>
   </energy>
  </scstep>
  <scstep>
   <time name="diag">    0.71    0.71</time>
   <time name="diis">    1.66    1.76</time>
   <time name="orth">    0.06    0.06</time>
   <time name="total">    2.90    3.02</time>
   <energy>
    <i name="alphaZ">     28.75747972 </i>
    <i name="ewald">  34151.39390260 </i>
    <i name="hartreedc"> -50972.23924414 </i>
    <i name="XCdc">   -199.02995581 </i>
    <i name="pawpsdc">  14783.91464334 </i>
    <i name="pawaedc"> -14020.28636871 </i>
    <i name="eentropy">     -0.02820948 </i>
    <i name="bandstr">  -1443.59756775 </i>
    <i name="atom">  17635.87358239 </i>
    <i name="e_fr_energy">    -35.24173784 </i>
    <i name="e_wo_entrp">    -35.21352836 </i>
    <i name="e_0_energy">    -35.22763310 </i>
   </energy>
  </scstep>
  <structure>
   <crystal>
    <varray name="basis" >
     <v>      26.37762092       0.00000000       0.00000000 </v>
     <v>       0.00000000      26.73697186       0.00000000 </v>
     <v>       0.00000000       0.00000000      25.30390948 </v>
    </varray>
    <i name="volume">  17845.77720609 </i>
    <varray name="rec_basis" >
     <v>       0.03791092       0.00000000       0.00000000 </v>
     <v>       0.00000000       0.03740139       0.00000000 </v>
     <v>       0.00000000       0.00000000       0.03951958 </v>
    </varray>
   </crystal>
   <varray name="positions" >
    <v>       0.58222836       0.53281762       0.56158119 </v>
    <v>       0.67200599       0.76108098       0.61345385 </v>
    <v>       0.60491813       0.73528704       0.53140318 </v>
    <v>       0.51374048       0.68893283       0.55871703 </v>
    <v>       0.59651590       0.63271093       0.71704025 </v>
    <v>       0.49932656       0.58832831       0.52902007 </v>
    <v>       0.68874318       0.67501637       0.55170894 </v>
    <v>       0.59404194       0.63311910       0.50934467 </v>
    <v>       0.67708425       0.51051281       0.61630810 </v>
    <v>       0.73950416       0.59917592       0.61560835 </v>
    <v>       0.52724010       0.61312579       0.63308010 </v>
    <v>       0.68485285       0.57373027       0.70946099 </v>
    <v>       0.58849035       0.53240799       0.67678315 </v>
    <v>       0.67933534       0.57182583       0.52536266 </v>
    <v>       0.68936037       0.67809431       0.67627879 </v>
    <v>       0.58409982       0.70712871       0.63951057 </v>
    <v>       0.63365502       0.60846833       0.61700866 </v>
   </varray>
  </structure>
  <varray name="forces" >
   <v>      -0.01914484       0.04950208      -0.00276551 </v>
   <v>       0.02535543       0.02170218      -0.00568581 </v>
   <v>      -0.02862745       0.02337125       0.01376722 </v>
   <v>      -0.01118922       0.00264412      -0.01633994 </v>
   <v>      -0.02343833       0.04039794       0.02575859 </v>
   <v>      -0.02086832      -0.01230637      -0.01352511 </v>
   <v>      -0.01872504      -0.01620586       0.04835184 </v>
   <v>       0.01057057      -0.01275625       0.06377318 </v>
   <v>       0.00613224      -0.04636842      -0.00508186 </v>
   <v>       0.04721099       0.01121872      -0.00668588 </v>
   <v>       0.06030509       0.00116082      -0.03712726 </v>
   <v>       0.03161774      -0.02360631       0.03040082 </v>
   <v>      -0.03915796      -0.03051396       0.03312211 </v>
   <v>       0.00216114       0.00739004      -0.03777791 </v>
   <v>      -0.02677440       0.00837490      -0.03964066 </v>
   <v>       0.03855290      -0.05713508      -0.02433819 </v>
   <v>      -0.03398053       0.03313022      -0.02620563 </v>
  </varray>
  <varray name="stress" >
   <v>      -0.07806176       0.00252478       0.01057457 </v>
   <v>       0.00252478      -0.06915516      -0.00727618 </v>
   <v>       0.01057457      -0.00727618      -0.08885358 </v>
  </varray>
  <energy>
   <i name="e_fr_energy">    -35.24173784 </i>
   <i name="e_wo_entrp">    -35.22763310 </i>
   <i name="e_0_energy">     -0.02820948 </i>
  </energy>
  <time name="totalsc">   30.68   31.99</time>
 </calculation>
 <calculation>
  <scstep>
   <time name="dav">    3.65    3.84</time>
   <time name="total">    4.43    4.75</time>
   <energy>
    <i name="alphaZ">     28.75747972 </i>
    <i name="ewald">  34171.55448508 </i>
    <i name="hartreedc"> -50992.27186931 </i>
    <i name="XCdc">   -199.00865860 </i>
    <i name="pawpsdc">  14784.07532527 </i>
    <i name="pawaedc"> -14020.45563011 </i>
    <i name="eentropy">     -0.02820948 </i>
    <i name="bandstr">  -1443.74010844 </i>
    <i name="atom">  17635.87358239 </i>
    <i name="e_fr_energy">    -35.24360348 </i>
    <i name="e_wo_entrp">    -35.21539400 </i>
    <i name="e_0_energy">    -35.22949874 </i>
   </energy>
  </scstep>
  <scstep>
   <time name="diag">    0.71    0.71</time>
   <time name="diis">    2.46    2.65</time>
   <time name="orth">    0.06    0.06</time>
   <time name="total">    4.02    4.22</time>
   <energy>
    <i name="e_fr_energy">    -35.24442478 </i>
    <i name="e_wo_entrp">    -35.21621530 </i>
    <i name="e_0_energy">    -35.23032004 </i>
   </energy>
  </scstep>
  <scstep>
   <time name="diag">    0.85    0.87</time>
   <time name="diis">    2.49    2.52</time>
   <time name="orth">    0.06    0.06</time>
   <time name="total">    4.22    4.28</time>
   <energy>
    <i name="e_fr_energy">    -35.24441735 </i>
    <i name="e_wo_entrp">    -35.21620787 </i>
    <i name="e_0_energy">    -35.23031261 </i>
   </energy>
  </scstep>
  <scstep>
   <time name="diag">    0.71    0.71</time>
   <time name="diis">    2.62    2.65</time>
   <time name="orth">    0.05    0.06</time>
   <time name="total">    4.24    4.44</time>
   <energy>
    <i name="e_fr_energy">    -35.24439176 </i>
    <i name="e_wo_entrp">    -35.21618229 </i>
    <i name="e_0_energy">    -35.23028702 </i>
   </energy>
  </scstep>
  <scstep>
   <time name="diag">    0.84    0.92</time>
   <time name="diis">    1.47    1.62</time>
   <time name="orth">    0.06    0.06</time>
   <time name="total">    2.88    3.11</time>
   <energy>
    <i name="alphaZ">     28.75747972 </i>
    <i name="ewald">  34171.55448508 </i>
    <i name="hartreedc"> -50992.11289190 </i>
    <i name="XCdc">   -199.01308059 </i>
    <i name="pawpsdc">  14784.43148836 </i>
    <i name="pawaedc"> -14020.84759007 </i>
    <i name="eentropy">     -0.02820948 </i>
    <i name="bandstr">  -1443.85966130 </i>
    <i name="atom">  17635.87358239 </i>
    <i name="e_fr_energy">    -35.24439780 </i>
    <i name="e_wo_entrp">    -35.21618832 </i>
    <i name="e_0_energy">    -35.23029306 </i>
   </energy>
  </scstep>
  <structure>
   <crystal>
    <varray name="basis" >
     <v>      26.37762092       0.00000000       0.00000000 </v>
     <v>       0.00000000      26.73697186       0.00000000 </v>
     <v>       0.00000000       0.00000000      25.30390948 </v>
    </varray>
    <i name="volume">  17845.77720609 </i>
    <varray name="rec_basis" >
     <v>       0.03791092       0.00000000       0.00000000 </v>
     <v>       0.00000000       0.03740139       0.00000000 </v>
     <v>       0.00000000       0.00000000       0.03951958 </v>
    </varray>
   </crystal>
   <varray name="positions" >
    <v>       0.58219012       0.53299569       0.56158869 </v>
    <v>       0.67206017       0.76111411       0.61342480 </v>
    <v>       0.60484595       0.73532097       0.53148396 </v>
    <v>       0.51373664       0.68891657       0.55867105 </v>
    <v>       0.59647198       0.63280323       0.71707068 </v>
    <v>       0.49929533       0.58831011       0.52899943 </v>
    <v>       0.68864758       0.67496221       0.55188307 </v>
    <v>       0.59407034       0.63308662       0.50957338 </v>
    <v>       0.67707669       0.51042990       0.61629840 </v>
    <v>       0.73958202       0.59920461       0.61559622 </v>
    <v>       0.52745016       0.61313809       0.63294757 </v>
    <v>       0.68491330       0.57368495       0.70949729 </v>
    <v>       0.58841374       0.53235906       0.67685700 </v>
    <v>       0.67931781       0.57186307       0.52529487 </v>
    <v>       0.68925569       0.67809260       0.67613202 </v>
    <v>       0.58423780       0.70695233       0.63940656 </v>
    <v>       0.63357749       0.60852901       0.61694558 </v>
   </varray>
  </structure>
  <varray name="forces" >
   <v>      -0.01530959       0.02954387       0.00193504 </v>
   <v>       0.02407671       0.02807467      -0.00444909 </v>
   <v>      -0.02390463       0.02572651       0.00842739 </v>
   <v>      -0.01928836       0.00796223      -0.01632016 </v>
   <v>      -0.01139082       0.02563617       0.02564661 </v>
   <v>      -0.02633231      -0.01024222      -0.01751291 </v>
   <v>      -0.01008910      -0.00381182       0.03201166 </v>
   <v>       0.00870915      -0.00154701       0.04923774 </v>
   <v>      -0.00246111      -0.02856811      -0.00637992 </v>
   <v>       0.03490525       0.00514915      -0.00224062 </v>
   <v>       0.03643711      -0.00458826      -0.02965319 </v>
   <v>       0.01645112      -0.01439116       0.01409243 </v>
   <v>      -0.02480000      -0.01759073       0.03046348 </v>
   <v>       0.00558762      -0.00020441      -0.02687215 </v>
   <v>      -0.02178922       0.00366984      -0.03134365 </v>
   <v>       0.03681902      -0.04392760      -0.02465391 </v>
   <v>      -0.00762083      -0.00089112      -0.00238877 </v>
  </varray>
  <varray name="stress" >
   <v>      -0.07476049       0.00417606       0.01320232 </v>
   <v>       0.00417606      -0.06478425      -0.00842603 </v>
   <v>       0.01320232      -0.00842603      -0.08749929 </v>
  </varray>
  <energy>
   <i name="e_fr_energy">    -35.24439780 </i>
   <i name="e_wo_entrp">    -35.23029306 </i>
   <i name="e_0_energy">     -0.02820948 </i>
  </energy>
  <time name="totalsc">   25.81   27.05</time>
 </calculation>
 <calculation>
  <scstep>
   <time name="dav">    3.59    3.84</time>
   <time name="total">    4.38    4.66</time>
   <energy>
    <i name="alphaZ">     28.75747972 </i>
    <i name="ewald">  34216.72046834 </i>
    <i name="hartreedc"> -51037.02152003 </i>
    <i name="XCdc">   -198.96395528 </i>
    <i name="pawpsdc">  14784.41497066 </i>
    <i name="pawaedc"> -14020.83026765 </i>
    <i name="eentropy">     -0.02820948 </i>
    <i name="bandstr">  -1444.16495899 </i>
    <i name="atom">  17635.87358239 </i>
    <i name="e_fr_energy">    -35.24241032 </i>
    <i name="e_wo_entrp">    -35.21420085 </i>
    <i name="e_0_energy">    -35.22830559 </i>
   </energy>
  </scstep>
  <scstep>
   <time name="diag">    0.71    0.76</time>
   <time name="diis">    2.58    2.92</time>
   <time name="orth">    0.06    0.06</time>
   <time name="total">    4.14    4.53</time>
   <energy>
    <i name="e_fr_energy">    -35.24650496 </i>
    <i name="e_wo_entrp">    -35.21829548 </i>
    <i name="e_0_energy">    -35.23240022 </i>
   </energy>
  </scstep>
  <scstep>
   <time name="diag">    0.70    0.71</time>
   <time name="diis">    2.51    2.74</time>
   <time name="orth">    0.06    0.06</time>
   <time name="total">    4.07    4.31</time>
   <energy>
    <i name="e_fr_energy">    -35.24645756 </i>
    <i name="e_wo_entrp">    -35.21824808 </i>
    <i name="e_0_energy">    -35.23235282 </i>
   </energy>
  </scstep>
  <scstep>
   <time name="diag">    0.71    0.71</time>
   <time name="diis">    2.50    2.53</time>
   <time name="orth">    0.06    0.06</time>
   <time name="total">    4.19    4.25</time>
   <energy>
    <i name="e_fr_energy">    -35.24630703 </i>
    <i name="e_wo_entrp">    -35.21809755 </i>
    <i name="e_0_energy">    -35.23220229 </i>
   </energy>
  </scstep>
  <scstep>
   <time name="diag">    0.85    0.87</time>
   <time name="diis">    2.48    2.52</time>
   <time name="orth">    0.06    0.06</time>
   <time name="total">    4.68    4.86</time>
   <energy>
    <i name="e_fr_energy">    -35.24631965 </i>
    <i name="e_wo_entrp">    -35.21811017 </i>
    <i name="e_0_energy">    -35.23221491 </i>
   </energy>
  </scstep>
  <scstep>
   <time name="diag">    0.74    0.85</time>
   <time name="diis">    1.71    1.74</time>
   <time name="orth">    0.06    0.06</time>
   <time name="total">    2.99    3.12</time>
   <energy>
    <i name="alphaZ">     28.75747972 </i>
    <i name="ewald">  34216.72046834 </i>
    <i name="hartreedc"> -51036.80741243 </i>
    <i name="XCdc">   -198.97290658 </i>
    <i name="pawpsdc">  14785.26024808 </i>
    <i name="pawaedc"> -14021.75868739 </i>
    <i name="eentropy">     -0.02820948 </i>
    <i name="bandstr">  -1444.29087540 </i>
    <i name="atom">  17635.87358239 </i>
    <i name="e_fr_energy">    -35.24631275 </i>
    <i name="e_wo_entrp">    -35.21810327 </i>
    <i name="e_0_energy">    -35.23220801 </i>
   </energy>
  </scstep>
  <structure>
   <crystal>
    <varray name="basis" >
     <v>      26.37762092       0.00000000       0.00000000 </v>
     <v>       0.00000000      26.73697186       0.00000000 </v>
     <v>       0.00000000       0.00000000      25.30390948 </v>
    </varray>
    <i name="volume">  17845.77720609 </i>
    <varray name="rec_basis" >
     <v>       0.03791092       0.00000000       0.00000000 </v>
     <v>       0.00000000       0.03740139       0.00000000 </v>
     <v>       0.00000000       0.00000000       0.03951958 </v>
    </varray>
   </crystal>
   <varray name="positions" >
    <v>       0.58210483       0.53339287       0.56160543 </v>
    <v>       0.67218101       0.76118801       0.61335999 </v>
    <v>       0.60468494       0.73539665       0.53166414 </v>
    <v>       0.51372810       0.68888031       0.55856849 </v>
    <v>       0.59637402       0.63300910       0.71713854 </v>
    <v>       0.49922567       0.58826951       0.52895337 </v>
    <v>       0.68843435       0.67484141       0.55227146 </v>
    <v>       0.59413368       0.63301417       0.51008348 </v>
    <v>       0.67705982       0.51024497       0.61627677 </v>
    <v>       0.73975567       0.59926862       0.61556917 </v>
    <v>       0.52791866       0.61316554       0.63265198 </v>
    <v>       0.68504815       0.57358387       0.70957825 </v>
    <v>       0.58824287       0.53224994       0.67702171 </v>
    <v>       0.67927872       0.57194612       0.52514366 </v>
    <v>       0.68902220       0.67808879       0.67580465 </v>
    <v>       0.58454555       0.70655893       0.63917458 </v>
    <v>       0.63340456       0.60866435       0.61680489 </v>
   </varray>
  </structure>
  <varray name="forces" >
   <v>      -0.00441549      -0.02179097       0.00366321 </v>
   <v>       0.02143646       0.04549407      -0.00128279 </v>
   <v>      -0.00126334       0.02898333      -0.01435661 </v>
   <v>      -0.03565783       0.01677731      -0.01509656 </v>
   <v>       0.01648508      -0.00864653       0.02906240 </v>
   <v>      -0.04268704      -0.00049695      -0.02220885 </v>
   <v>       0.00959724       0.02833174      -0.00085362 </v>
   <v>      -0.02070811       0.01808711       0.00520877 </v>
   <v>      -0.01112869       0.01243768      -0.00833114 </v>
   <v>      -0.00370524      -0.01566835       0.00025668 </v>
   <v>      -0.02670768      -0.02685084      -0.00943933 </v>
   <v>      -0.01575720       0.00450581      -0.01927606 </v>
   <v>       0.00634580       0.00654252       0.02141298 </v>
   <v>       0.02452500      -0.02024626       0.00281336 </v>
   <v>       0.00334351       0.00163763      -0.00400745 </v>
   <v>       0.02644405       0.00043950      -0.02690565 </v>
   <v>       0.05385348      -0.06953678       0.05934066 </v>
  </varray>
  <varray name="stress" >
   <v>      -0.05936679       0.00544347       0.01731319 </v>
   <v>       0.00544347      -0.04614636      -0.01122250 </v>
   <v>       0.01731319      -0.01122250      -0.07931662 </v>
  </varray>
  <energy>
   <i name="e_fr_energy">    -35.24631275 </i>
   <i name="e_wo_entrp">    -35.23220801 </i>
   <i name="e_0_energy">     -0.02820948 </i>
  </energy>
  <time name="totalsc">   30.32   31.90</time>
 </calculation>
 <calculation>
  <scstep>
   <time name="dav">    3.71    4.00</time>
   <time name="total">    4.53    4.83</time>
   <energy>
    <i name="alphaZ">     28.75747972 </i>
    <i name="ewald">  34209.20803725 </i>
    <i name="hartreedc"> -51029.34594057 </i>
    <i name="XCdc">   -198.98109606 </i>
    <i name="pawpsdc">  14785.28286155 </i>
    <i name="pawaedc"> -14021.78228005 </i>
    <i name="eentropy">     -0.02820948 </i>
    <i name="bandstr">  -1444.23069308 </i>
    <i name="atom">  17635.87358239 </i>
    <i name="e_fr_energy">    -35.24625834 </i>
    <i name="e_wo_entrp">    -35.21804886 </i>
    <i name="e_0_energy">    -35.23215360 </i>
   </energy>
  </scstep>
  <scstep>
   <time name="diag">    0.70    0.71</time>
   <time name="diis">    2.63    2.74</time>
   <time name="orth">    0.06    0.06</time>
   <time name="total">    4.19    4.31</time>
   <energy>
    <i name="e_fr_energy">    -35.24637033 </i>
    <i name="e_wo_entrp">    -35.21816085 </i>
    <i name="e_0_energy">    -35.23226559 </i>
   </energy>
  </scstep>
  <scstep>
   <time name="diag">    0.71    0.72</time>
   <time name="diis">    1.47    1.48</time>
   <time name="orth">    0.06    0.06</time>
   <time name="total">    2.74    2.80</time>
   <energy>
    <i name="alphaZ">     28.75747972 </i>
    <i name="ewald">  34209.20803725 </i>
    <i name="hartreedc"> -51029.37570008 </i>
    <i name="XCdc">   -198.97988802 </i>
    <i name="pawpsdc">  14785.22156056 </i>
    <i name="pawaedc"> -14021.71376544 </i>
    <i name="eentropy">     -0.02820948 </i>
    <i name="bandstr">  -1444.20946562 </i>
    <i name="atom">  17635.87358239 </i>
    <i name="e_fr_energy">    -35.24636871 </i>
    <i name="e_wo_entrp">    -35.21815923 </i>
    <i name="e_0_energy">    -35.23226397 </i>
   </energy>
  </scstep>
  <structure>
   <crystal>
    <varray name="basis" >
     <v>      26.37762092       0.00000000       0.00000000 </v>
     <v>       0.00000000      26.73697186       0.00000000 </v>
     <v>       0.00000000       0.00000000      25.30390948 </v>
    </varray>
    <i name="volume">  17845.77720609 </i>
    <varray name="rec_basis" >
     <v>       0.03791092       0.00000000       0.00000000 </v>
     <v>       0.00000000       0.03740139       0.00000000 </v>
     <v>       0.00000000       0.00000000       0.03951958 </v>
    </varray>
   </crystal>
   <varray name="positions" >
    <v>       0.58211898       0.53332698       0.56160265 </v>
    <v>       0.67216096       0.76117575       0.61337074 </v>
    <v>       0.60471165       0.73538409       0.53163425 </v>
    <v>       0.51372951       0.68888632       0.55858550 </v>
    <v>       0.59639027       0.63297494       0.71712728 </v>
    <v>       0.49923723       0.58827624       0.52896101 </v>
    <v>       0.68846972       0.67486145       0.55220703 </v>
    <v>       0.59412317       0.63302619       0.50999885 </v>
    <v>       0.67706262       0.51027565       0.61628036 </v>
    <v>       0.73972686       0.59925800       0.61557366 </v>
    <v>       0.52784093       0.61316098       0.63270102 </v>
    <v>       0.68502578       0.57360064       0.70956482 </v>
    <v>       0.58827122       0.53226804       0.67699439 </v>
    <v>       0.67928521       0.57193234       0.52516874 </v>
    <v>       0.68906094       0.67808942       0.67585896 </v>
    <v>       0.58449449       0.70662420       0.63921307 </v>
    <v>       0.63343325       0.60864189       0.61682823 </v>
   </varray>
  </structure>
  <varray name="forces" >
   <v>      -0.00721291      -0.00703872       0.00588925 </v>
   <v>       0.02400349       0.04285962      -0.00274405 </v>
   <v>      -0.00467105       0.02860222      -0.00843978 </v>
   <v>      -0.03330065       0.01404853      -0.01527536 </v>
   <v>       0.00910096       0.00014316       0.03008031 </v>
   <v>      -0.04185400      -0.00242083      -0.02226295 </v>
   <v>       0.00552305       0.01970933       0.00712954 </v>
   <v>      -0.01464049       0.01229875       0.01468778 </v>
   <v>      -0.01025182       0.00097559      -0.00905011 </v>
   <v>       0.00454720      -0.01029541      -0.00204718 </v>
   <v>      -0.01157599      -0.02106207      -0.01565223 </v>
   <v>      -0.00881677       0.00002531      -0.01447185 </v>
   <v>      -0.00041763       0.00119711       0.02391832 </v>
   <v>       0.01929696      -0.01442818      -0.00344355 </v>
   <v>      -0.00279097       0.00400243      -0.00956946 </v>
   <v>       0.03194277      -0.01284629      -0.02447274 </v>
   <v>       0.04111783      -0.05577055       0.04572404 </v>
  </varray>
  <varray name="stress" >
   <v>      -0.06315965       0.00549035       0.01629148 </v>
   <v>       0.00549035      -0.05093901      -0.01071296 </v>
   <v>       0.01629147      -0.01071296      -0.08248790 </v>
  </varray>
  <energy>
   <i name="e_fr_energy">    -35.24636871 </i>
   <i name="e_wo_entrp">    -35.23226397 </i>
   <i name="e_0_energy">     -0.02820948 </i>
  </energy>
  <time name="totalsc">   17.59   18.44</time>
 </calculation>
 <calculation>
  <scstep>
   <time name="dav">    3.41    3.47</time>
   <time name="total">    4.20    4.27</time>
   <energy>
    <i name="alphaZ">     28.75747972 </i>
    <i name="ewald">  34197.98563894 </i>
    <i name="hartreedc"> -51018.15720599 </i>
    <i name="XCdc">   -198.99739899 </i>
    <i name="pawpsdc">  14785.14409761 </i>
    <i name="pawaedc"> -14021.63059344 </i>
    <i name="eentropy">     -0.02820948 </i>
    <i name="bandstr">  -1444.19477683 </i>
    <i name="atom">  17635.87358239 </i>
    <i name="e_fr_energy">    -35.24738606 </i>
    <i name="e_wo_entrp">    -35.21917658 </i>
    <i name="e_0_energy">    -35.23328132 </i>
   </energy>
  </scstep>
  <scstep>
   <time name="diag">    0.71    0.71</time>
   <time name="diis">    2.52    2.55</time>
   <time name="orth">    0.06    0.06</time>
   <time name="total">    4.14    4.44</time>
   <energy>
    <i name="e_fr_energy">    -35.24829841 </i>
    <i name="e_wo_entrp">    -35.22008893 </i>
    <i name="e_0_energy">    -35.23419367 </i>
   </energy>
  </scstep>
  <scstep>
   <time name="diag">    0.83    1.00</time>
   <time name="diis">    2.58    2.60</time>
   <time name="orth">    0.06    0.06</time>
   <time name="total">    4.26    4.46</time>
   <energy>
    <i name="e_fr_energy">    -35.24828576 </i>
    <i name="e_wo_entrp">    -35.22007628 </i>
    <i name="e_0_energy">    -35.23418102 </i>
   </energy>
  </scstep>
  <scstep>
   <time name="diag">    0.71    0.71</time>
   <time name="diis">    2.37    2.66</time>
   <time name="orth">    0.06    0.06</time>
   <time name="total">    3.93    4.23</time>
   <energy>
    <i name="e_fr_energy">    -35.24824079 </i>
    <i name="e_wo_entrp">    -35.22003131 </i>
    <i name="e_0_energy">    -35.23413605 </i>
   </energy>
  </scstep>
  <scstep>
   <time name="diag">    0.71    0.71</time>
   <time name="diis">    2.60    2.68</time>
   <time name="orth">    0.06    0.06</time>
   <time name="total">    3.85    3.93</time>
   <energy>
    <i name="alphaZ">     28.75747972 </i>
    <i name="ewald">  34197.98563894 </i>
    <i name="hartreedc"> -51018.42550124 </i>
    <i name="XCdc">   -198.99254579 </i>
    <i name="pawpsdc">  14784.67174594 </i>
    <i name="pawaedc"> -14021.11851763 </i>
    <i name="eentropy">     -0.02820948 </i>
    <i name="bandstr">  -1443.97190949 </i>
    <i name="atom">  17635.87358239 </i>
    <i name="e_fr_energy">    -35.24823664 </i>
    <i name="e_wo_entrp">    -35.22002716 </i>
    <i name="e_0_energy">    -35.23413190 </i>
   </energy>
  </scstep>
  <structure>
   <crystal>
    <varray name="basis" >
     <v>      26.37762092       0.00000000       0.00000000 </v>
     <v>       0.00000000      26.73697186       0.00000000 </v>
     <v>       0.00000000       0.00000000      25.30390948 </v>
    </varray>
    <i name="volume">  17845.77720609 </i>
    <varray name="rec_basis" >
     <v>       0.03791092       0.00000000       0.00000000 </v>
     <v>       0.00000000       0.03740139       0.00000000 </v>
     <v>       0.00000000       0.00000000       0.03951958 </v>
    </varray>
   </crystal>
   <varray name="positions" >
    <v>       0.58207202       0.53339448       0.56162948 </v>
    <v>       0.67227889       0.76135081       0.61334483 </v>
    <v>       0.60465637       0.73550712       0.53164381 </v>
    <v>       0.51360332       0.68892948       0.55850200 </v>
    <v>       0.59640118       0.63302388       0.71726018 </v>
    <v>       0.49906477       0.58825779       0.52886364 </v>
    <v>       0.68844017       0.67490556       0.55232608 </v>
    <v>       0.59408347       0.63305440       0.51017590 </v>
    <v>       0.67702042       0.51023576       0.61624009 </v>
    <v>       0.73978465       0.59923517       0.61555934 </v>
    <v>       0.52790794       0.61308995       0.63257066 </v>
    <v>       0.68502461       0.57357696       0.70952760 </v>
    <v>       0.58822948       0.53224678       0.67712610 </v>
    <v>       0.67934798       0.57189879       0.52511980 </v>
    <v>       0.68899563       0.67810325       0.67574478 </v>
    <v>       0.58468599       0.70648442       0.63906338 </v>
    <v>       0.63354592       0.60846854       0.61697289 </v>
   </varray>
  </structure>
  <varray name="forces" >
   <v>      -0.00981218      -0.01097925       0.00049588 </v>
   <v>       0.01820876       0.03913521      -0.00105245 </v>
   <v>      -0.00050904       0.01913469      -0.00885145 </v>
   <v>      -0.02513369       0.01345220      -0.01194686 </v>
   <v>       0.00889794      -0.00464499       0.01640414 </v>
   <v>      -0.03145162      -0.00158784      -0.01606878 </v>
   <v>      -0.00359782       0.02176824       0.00310255 </v>
   <v>      -0.01487402       0.01343366       0.01954510 </v>
   <v>      -0.00884444      -0.00031180      -0.00875696 </v>
   <v>       0.00354376      -0.01387190      -0.00272977 </v>
   <v>      -0.01067021      -0.01290716      -0.01086880 </v>
   <v>      -0.00481556       0.00157379      -0.00444230 </v>
   <v>       0.00130413       0.00372263       0.02030605 </v>
   <v>       0.00687009      -0.00655850       0.00210320 </v>
   <v>       0.00935786       0.00877808      -0.00396631 </v>
   <v>       0.02062078      -0.01159333      -0.02912717 </v>
   <v>       0.04090524      -0.05854372       0.03585393 </v>
  </varray>
  <varray name="stress" >
   <v>      -0.07061228       0.00406017       0.01544028 </v>
   <v>       0.00406017      -0.05571917      -0.01038098 </v>
   <v>       0.01544027      -0.01038097      -0.08673752 </v>
  </varray>
  <energy>
   <i name="e_fr_energy">    -35.24823664 </i>
   <i name="e_wo_entrp">    -35.23413190 </i>
   <i name="e_0_energy">     -0.02820948 </i>
  </energy>
  <time name="totalsc">   26.48   27.54</time>
 </calculation>
 <calculation>
  <scstep>
   <time name="dav">    4.31    4.54</time>
   <time name="total">    5.10    5.33</time>
   <energy>
    <i name="alphaZ">     28.75747972 </i>
    <i name="ewald">  34164.17126242 </i>
    <i name="hartreedc"> -50984.62662376 </i>
    <i name="XCdc">   -199.04353949 </i>
    <i name="pawpsdc">  14784.66259503 </i>
    <i name="pawaedc"> -14021.10967638 </i>
    <i name="eentropy">     -0.02820948 </i>
    <i name="bandstr">  -1443.90027289 </i>
    <i name="atom">  17635.87358239 </i>
    <i name="e_fr_energy">    -35.24340244 </i>
    <i name="e_wo_entrp">    -35.21519296 </i>
    <i name="e_0_energy">    -35.22929770 </i>
   </energy>
  </scstep>
  <scstep>
   <time name="diag">    0.71    0.71</time>
   <time name="diis">    2.61    2.77</time>
   <time name="orth">    0.06    0.06</time>
   <time name="total">    4.17    4.34</time>
   <energy>
    <i name="e_fr_energy">    -35.25168933 </i>
    <i name="e_wo_entrp">    -35.22347985 </i>
    <i name="e_0_energy">    -35.23758459 </i>
   </energy>
  </scstep>
  <scstep>
   <time name="diag">    0.71    0.72</time>
   <time name="diis">    2.50    2.54</time>
   <time name="orth">    0.06    0.06</time>
   <time name="total">    4.21    4.40</time>
   <energy>
    <i name="e_fr_energy">    -35.25156837 </i>
    <i name="e_wo_entrp">    -35.22335889 </i>
    <i name="e_0_energy">    -35.23746363 </i>
   </energy>
  </scstep>
  <scstep>
   <time name="diag">    0.71    0.71</time>
   <time name="diis">    2.47    2.49</time>
   <time name="orth">    0.06    0.06</time>
   <time name="total">    4.06    4.11</time>
   <energy>
    <i name="e_fr_energy">    -35.25117721 </i>
    <i name="e_wo_entrp">    -35.22296773 </i>
    <i name="e_0_energy">    -35.23707247 </i>
   </energy>
  </scstep>
  <scstep>
   <time name="diag">    0.73    0.91</time>
   <time name="diis">    2.46    2.47</time>
   <time name="orth">    0.06    0.06</time>
   <time name="total">    4.11    4.36</time>
   <energy>
    <i name="e_fr_energy">    -35.25113736 </i>
    <i name="e_wo_entrp">    -35.22292788 </i>
    <i name="e_0_energy">    -35.23703262 </i>
   </energy>
  </scstep>
  <scstep>
   <time name="diag">    0.70    0.75</time>
   <time name="diis">    1.90    2.25</time>
   <time name="orth">    0.06    0.06</time>
   <time name="total">    3.45    3.85</time>
   <energy>
    <i name="e_fr_energy">    -35.25111724 </i>
    <i name="e_wo_entrp">    -35.22290776 </i>
    <i name="e_0_energy">    -35.23701250 </i>
   </energy>
  </scstep>
  <scstep>
   <time name="diag">    0.70    0.72</time>
   <time name="diis">    1.51    1.64</time>
   <time name="orth">    0.05    0.05</time>
   <time name="total">    2.73    2.88</time>
   <energy>
    <i name="alphaZ">     28.75747972 </i>
    <i name="ewald">  34164.17126242 </i>
    <i name="hartreedc"> -50985.46834116 </i>
    <i name="XCdc">   -199.02994097 </i>
    <i name="pawpsdc">  14783.22453380 </i>
    <i name="pawaedc"> -14019.55551237 </i>
    <i name="eentropy">     -0.02820948 </i>
    <i name="bandstr">  -1443.19597382 </i>
    <i name="atom">  17635.87358239 </i>
    <i name="e_fr_energy">    -35.25111947 </i>
    <i name="e_wo_entrp">    -35.22290999 </i>
    <i name="e_0_energy">    -35.23701473 </i>
   </energy>
  </scstep>
  <structure>
   <crystal>
    <varray name="basis" >
     <v>      26.37762092       0.00000000       0.00000000 </v>
     <v>       0.00000000      26.73697186       0.00000000 </v>
     <v>       0.00000000       0.00000000      25.30390948 </v>
    </varray>
    <i name="volume">  17845.77720609 </i>
    <varray name="rec_basis" >
     <v>       0.03791092       0.00000000       0.00000000 </v>
     <v>       0.00000000       0.03740139       0.00000000 </v>
     <v>       0.00000000       0.00000000       0.03951958 </v>
    </varray>
   </crystal>
   <varray name="positions" >
    <v>       0.58193116       0.53359700       0.56170997 </v>
    <v>       0.67263268       0.76187599       0.61326711 </v>
    <v>       0.60449052       0.73587619       0.53167250 </v>
    <v>       0.51322474       0.68905895       0.55825150 </v>
    <v>       0.59643389       0.63317070       0.71765886 </v>
    <v>       0.49854738       0.58820242       0.52857151 </v>
    <v>       0.68835153       0.67503787       0.55268323 </v>
    <v>       0.59396436       0.63313903       0.51070706 </v>
    <v>       0.67689383       0.51011606       0.61611929 </v>
    <v>       0.73995803       0.59916670       0.61551638 </v>
    <v>       0.52810895       0.61287684       0.63217959 </v>
    <v>       0.68502110       0.57350593       0.70941594 </v>
    <v>       0.58810426       0.53218301       0.67752124 </v>
    <v>       0.67953629       0.57179813       0.52497296 </v>
    <v>       0.68879969       0.67814473       0.67540222 </v>
    <v>       0.58526046       0.70606510       0.63861432 </v>
    <v>       0.63388393       0.60794847       0.61740688 </v>
   </varray>
  </structure>
  <varray name="forces" >
   <v>      -0.02469885      -0.01284766      -0.00160532 </v>
   <v>      -0.00854078       0.02321679      -0.00416564 </v>
   <v>       0.00871005      -0.00144987      -0.00051172 </v>
   <v>       0.00524454      -0.00002989       0.01161059 </v>
   <v>       0.00774909      -0.02875583      -0.05098174 </v>
   <v>       0.00924910       0.01484565      -0.00016031 </v>
   <v>      -0.03775620       0.01361748      -0.00487341 </v>
   <v>      -0.00736657       0.01342539       0.02774507 </v>
   <v>      -0.00189211      -0.01056481      -0.00512599 </v>
   <v>       0.00473641      -0.01697123      -0.00124199 </v>
   <v>      -0.00172242       0.00388714      -0.00450105 </v>
   <v>       0.00638008      -0.00870634       0.02431171 </v>
   <v>       0.01835512       0.00312593       0.00730586 </v>
[...]
       <r>   -8.2542    1.0000 </r>
       <r>   -8.2464    1.0000 </r>
       <r>   -8.2123    1.0000 </r>
       <r>   -8.2084    1.0000 </r>
       <r>   -8.0816    1.0000 </r>
       <r>   -8.0805    1.0000 </r>
       <r>   -8.0565    1.0000 </r>
       <r>   -8.0010    1.0000 </r>
       <r>   -7.9976    1.0000 </r>
       <r>   -7.9840    1.0000 </r>
       <r>   -7.9321    1.0000 </r>
       <r>   -7.8813    1.0000 </r>
       <r>   -7.8601    1.0000 </r>
       <r>   -7.8405    1.0000 </r>
       <r>   -7.8046    1.0000 </r>
       <r>   -7.6496    1.0000 </r>
       <r>   -7.6214    1.0000 </r>
       <r>   -7.5684    1.0000 </r>
       <r>   -7.5306    1.0000 </r>
       <r>   -7.4942    1.0000 </r>
       <r>   -7.4848    1.0000 </r>
       <r>   -7.4678    1.0000 </r>
       <r>   -7.4332    1.0000 </r>
       <r>   -7.4299    1.0000 </r>
       <r>   -7.3962    1.0000 </r>
       <r>   -7.3839    1.0000 </r>
       <r>   -7.3761    1.0000 </r>
       <r>   -7.3483    1.0000 </r>
       <r>   -7.3378    1.0000 </r>
       <r>   -7.3222    1.0000 </r>
       <r>   -7.2982    1.0000 </r>
       <r>   -7.2724    1.0000 </r>
       <r>   -7.2667    1.0000 </r>
       <r>   -7.2412    1.0000 </r>
       <r>   -7.2244    1.0000 </r>
       <r>   -7.2180    1.0000 </r>
       <r>   -7.1760    1.0000 </r>
       <r>   -7.1693    1.0000 </r>
       <r>   -7.1642    1.0000 </r>
       <r>   -7.1401    1.0000 </r>
       <r>   -7.1290    1.0000 </r>
       <r>   -7.0982    1.0000 </r>
       <r>   -7.0661    1.0000 </r>
       <r>   -7.0605    1.0000 </r>
       <r>   -7.0559    1.0000 </r>
       <r>   -7.0322    1.0000 </r>
       <r>   -6.9669    1.0000 </r>
       <r>   -6.9342    1.0000 </r>
       <r>   -6.9105    1.0000 </r>
       <r>   -6.9037    1.0000 </r>
       <r>   -6.8857    1.0000 </r>
       <r>   -6.8390    1.0000 </r>
       <r>   -6.7949    1.0000 </r>
       <r>   -6.7345    1.0000 </r>
       <r>   -6.7256    1.0000 </r>
       <r>   -6.6886    1.0000 </r>
       <r>   -6.6293    1.0000 </r>
       <r>   -6.4372    1.0000 </r>
       <r>   -6.1887    1.0000 </r>
       <r>   -4.9954    1.0000 </r>
       <r>   -4.8422    1.0000 </r>
       <r>   -4.6089    1.0000 </r>
       <r>   -4.2678    1.0000 </r>
       <r>   -3.9976    0.5000 </r>
       <r>   -3.5043    0.0000 </r>
       <r>   -2.8603    0.0000 </r>
       <r>   -2.8129    0.0000 </r>
       <r>   -2.5222    0.0000 </r>
       <r>   -2.5198    0.0000 </r>
       <r>   -2.3922    0.0000 </r>
       <r>   -2.3427    0.0000 </r>
       <r>   -1.9186    0.0000 </r>
       <r>   -1.6817    0.0000 </r>
       <r>   -1.6131    0.0000 </r>
       <r>   -1.4842    0.0000 </r>
       <r>   -0.9120    0.0000 </r>
       <r>   -0.8138    0.0000 </r>
       <r>   -0.7345    0.0000 </r>
       <r>   -0.7268    0.0000 </r>
       <r>   -0.6460    0.0000 </r>
       <r>   -0.4481    0.0000 </r>
       <r>   -0.3260    0.0000 </r>
      </set>
     </set>
    </set>
   </array>
  </eigenvalues>
  <separator name="orbital magnetization" >
   <v name="MAGDIPOLOUT">      0.00000000      0.00000000      0.00000000</v>
  </separator>
  <dos>
   <i name="efermi">     -3.99763653 </i>
   <total>
    <array>
     <dimension dim="1">gridpoints</dimension>
     <dimension dim="2">spin</dimension>
     <field>energy</field>
     <field>total</field>
     <field>integrated</field>
     <set>
      <set comment="spin 1">
       <r>   -10.4987     0.0000     0.0000 </r>
       <r>   -10.4631     0.0000     0.0000 </r>
       <r>   -10.4275     0.0000     0.0000 </r>
       <r>   -10.3920     0.0000     0.0000 </r>
       <r>   -10.3564     0.0000     0.0000 </r>
       <r>   -10.3208     0.0000     0.0000 </r>
       <r>   -10.2852     0.0000     0.0000 </r>
       <r>   -10.2497     0.0000     0.0000 </r>
       <r>   -10.2141     0.0000     0.0000 </r>
       <r>   -10.1785     0.0000     0.0000 </r>
       <r>   -10.1429     0.0013     0.0000 </r>
       <r>   -10.1074     0.0582     0.0021 </r>
       <r>   -10.0718     1.0283     0.0387 </r>
       <r>   -10.0362     7.0248     0.2886 </r>
       <r>   -10.0006    18.7648     0.9562 </r>
       <r>    -9.9651    19.7428     1.6585 </r>
       <r>    -9.9295     8.1847     1.9497 </r>
       <r>    -9.8939     1.3281     1.9970 </r>
       <r>    -9.8583     0.0834     1.9999 </r>
       <r>    -9.8227     0.0020     2.0000 </r>
       <r>    -9.7872     0.0038     2.0001 </r>
       <r>    -9.7516     0.1365     2.0050 </r>
       <r>    -9.7160     1.8912     2.0723 </r>
       <r>    -9.6804    10.5161     2.4464 </r>
       <r>    -9.6449    26.7571     3.3983 </r>
       <r>    -9.6093    42.5205     4.9110 </r>
       <r>    -9.5737    48.8934     6.6504 </r>
       <r>    -9.5381    33.7580     7.8513 </r>
       <r>    -9.5026    26.6032     8.7978 </r>
       <r>    -9.4670    38.7637    10.1768 </r>
       <r>    -9.4314    34.5216    11.4049 </r>
       <r>    -9.3958    14.0608    11.9051 </r>
       <r>    -9.3603     2.4803    11.9934 </r>
       <r>    -9.3247     0.1807    11.9998 </r>
       <r>    -9.2891     0.0052    12.0000 </r>
       <r>    -9.2535     0.0001    12.0000 </r>
       <r>    -9.2180     0.0000    12.0000 </r>
       <r>    -9.1824     0.0010    12.0000 </r>
       <r>    -9.1468     0.0484    12.0018 </r>
       <r>    -9.1112     0.9154    12.0343 </r>
       <r>    -9.0757     6.9020    12.2799 </r>
       <r>    -9.0401    22.3114    13.0736 </r>
       <r>    -9.0045    35.6229    14.3409 </r>
       <r>    -8.9689    35.7283    15.6120 </r>
       <r>    -8.9334    40.0861    17.0380 </r>
       <r>    -8.8978    63.0047    19.2795 </r>
       <r>    -8.8622    73.7469    21.9031 </r>
       <r>    -8.8266    67.3129    24.2977 </r>
       <r>    -8.7911    65.2804    26.6201 </r>
       <r>    -8.7555    64.9106    28.9294 </r>
       <r>    -8.7199    74.0730    31.5645 </r>
       <r>    -8.6843    88.0658    34.6975 </r>
       <r>    -8.6488   102.8921    38.3580 </r>
       <r>    -8.6132    99.1177    41.8841 </r>
       <r>    -8.5776    70.3002    44.3851 </r>
       <r>    -8.5420    62.3153    46.6020 </r>
       <r>    -8.5065    64.0307    48.8799 </r>
       <r>    -8.4709    50.3383    50.6707 </r>
       <r>    -8.4353    37.3886    52.0008 </r>
       <r>    -8.3997    41.8062    53.4881 </r>
       <r>    -8.3642    46.6772    55.1487 </r>
       <r>    -8.3286    36.7055    56.4545 </r>
       <r>    -8.2930    45.2156    58.0631 </r>
       <r>    -8.2574    77.5758    60.8229 </r>
       <r>    -8.2219    96.9938    64.2735 </r>
       <r>    -8.1863    71.4600    66.8157 </r>
       <r>    -8.1507    30.7070    67.9081 </r>
       <r>    -8.1151    23.8377    68.7562 </r>
       <r>    -8.0795    52.8573    70.6366 </r>
       <r>    -8.0440    71.8870    73.1940 </r>
       <r>    -8.0084    75.0018    75.8622 </r>
       <r>    -7.9728    76.3123    78.5771 </r>
       <r>    -7.9372    59.3063    80.6869 </r>
       <r>    -7.9017    50.2078    82.4731 </r>
       <r>    -7.8661    62.2183    84.6865 </r>
       <r>    -7.8305    68.6300    87.1281 </r>
       <r>    -7.7949    50.8663    88.9377 </r>
       <r>    -7.7594    23.5231    89.7745 </r>
       <r>    -7.7238     6.7966    90.0163 </r>
       <r>    -7.6882     8.9104    90.3333 </r>
       <r>    -7.6526    27.9021    91.3260 </r>
       <r>    -7.6171    44.9031    92.9234 </r>
       <r>    -7.5815    46.2620    94.5692 </r>
       <r>    -7.5459    50.3878    96.3618 </r>
       <r>    -7.5103    66.6636    98.7334 </r>
       <r>    -7.4748    87.6116   101.8502 </r>
       <r>    -7.4392    98.2387   105.3451 </r>
       <r>    -7.4036   105.2869   109.0907 </r>
       <r>    -7.3680   114.7434   113.1728 </r>
       <r>    -7.3325   115.7453   117.2905 </r>
       <r>    -7.2969   109.3914   121.1821 </r>
       <r>    -7.2613   108.9232   125.0571 </r>
       <r>    -7.2257   111.5502   129.0256 </r>
       <r>    -7.1902   111.4691   132.9912 </r>
       <r>    -7.1546   116.6861   137.1423 </r>
       <r>    -7.1190   110.6105   141.0773 </r>
       <r>    -7.0834   101.7190   144.6960 </r>
       <r>    -7.0479   102.6418   148.3476 </r>
       <r>    -7.0123    78.0763   151.1252 </r>
       <r>    -6.9767    51.2660   152.9490 </r>
       <r>    -6.9411    62.1929   155.1615 </r>
       <r>    -6.9056    85.4721   158.2023 </r>
       <r>    -6.8700    81.1405   161.0889 </r>
       <r>    -6.8344    57.6324   163.1392 </r>
       <r>    -6.7988    45.1245   164.7445 </r>
       <r>    -6.7633    44.6701   166.3337 </r>
       <r>    -6.7277    55.8751   168.3214 </r>
       <r>    -6.6921    58.9583   170.4189 </r>
       <r>    -6.6565    44.4010   171.9985 </r>
       <r>    -6.6210    31.7113   173.1266 </r>
       <r>    -6.5854    18.4322   173.7824 </r>
       <r>    -6.5498     5.4657   173.9768 </r>
       <r>    -6.5142     1.4426   174.0282 </r>
       <r>    -6.4787     5.9722   174.2406 </r>
       <r>    -6.4431    17.6138   174.8672 </r>
       <r>    -6.4075    20.5570   175.5986 </r>
       <r>    -6.3719     9.4571   175.9350 </r>
       <r>    -6.3363     1.7055   175.9957 </r>
       <r>    -6.3008     0.1613   176.0014 </r>
       <r>    -6.2652     0.8201   176.0306 </r>
       <r>    -6.2296     6.1011   176.2476 </r>
       <r>    -6.1940    17.7995   176.8809 </r>
       <r>    -6.1585    20.4448   177.6082 </r>
       <r>    -6.1229     9.2558   177.9375 </r>
       <r>    -6.0873     1.6416   177.9959 </r>
       <r>    -6.0517     0.1128   177.9999 </r>
       <r>    -6.0162     0.0030   178.0000 </r>
       <r>    -5.9806     0.0000   178.0000 </r>
       <r>    -5.9450     0.0000   178.0000 </r>
       <r>    -5.9094     0.0000   178.0000 </r>
       <r>    -5.8739     0.0000   178.0000 </r>
       <r>    -5.8383     0.0000   178.0000 </r>
       <r>    -5.8027     0.0000   178.0000 </r>
       <r>    -5.7671     0.0000   178.0000 </r>
       <r>    -5.7316     0.0000   178.0000 </r>
       <r>    -5.6960     0.0000   178.0000 </r>
       <r>    -5.6604     0.0000   178.0000 </r>
       <r>    -5.6248     0.0000   178.0000 </r>
       <r>    -5.5893     0.0000   178.0000 </r>
       <r>    -5.5537     0.0000   178.0000 </r>
       <r>    -5.5181     0.0000   178.0000 </r>
       <r>    -5.4825     0.0000   178.0000 </r>
       <r>    -5.4470     0.0000   178.0000 </r>
       <r>    -5.4114     0.0000   178.0000 </r>
       <r>    -5.3758     0.0000   178.0000 </r>
       <r>    -5.3402     0.0000   178.0000 </r>
       <r>    -5.3047     0.0000   178.0000 </r>
       <r>    -5.2691     0.0000   178.0000 </r>
       <r>    -5.2335     0.0000   178.0000 </r>
       <r>    -5.1979     0.0000   178.0000 </r>
       <r>    -5.1624     0.0001   178.0000 </r>
       <r>    -5.1268     0.0056   178.0002 </r>
       <r>    -5.0912     0.1834   178.0067 </r>
       <r>    -5.0556     2.2957   178.0884 </r>
       <r>    -5.0201    11.1586   178.4854 </r>
       <r>    -4.9845    21.2790   179.2424 </r>
       <r>    -4.9489    16.0664   179.8140 </r>
       <r>    -4.9133     5.9022   180.0239 </r>
       <r>    -4.8778     8.1432   180.3136 </r>
       <r>    -4.8422    19.3022   181.0003 </r>
       <r>    -4.8066    19.2711   181.6859 </r>
       <r>    -4.7710     7.5891   181.9559 </r>
       <r>    -4.7355     1.1787   181.9978 </r>
       <r>    -4.6999     0.3426   182.0100 </r>
       <r>    -4.6643     3.0061   182.1169 </r>
       <r>    -4.6287    12.8601   182.5744 </r>
       <r>    -4.5931    21.6167   183.3435 </r>
       <r>    -4.5576    14.3282   183.8532 </r>
       <r>    -4.5220     3.7327   183.9860 </r>
       <r>    -4.4864     0.3786   183.9995 </r>
       <r>    -4.4508     0.0148   184.0000 </r>
       <r>    -4.4153     0.0011   184.0000 </r>
       <r>    -4.3797     0.0429   184.0016 </r>
       <r>    -4.3441     0.8268   184.0310 </r>
       <r>    -4.3085     6.1468   184.2496 </r>
       <r>    -4.2730    17.8516   184.8847 </r>
       <r>    -4.2374    20.4121   185.6109 </r>
       <r>    -4.2018     9.1992   185.9382 </r>
       <r>    -4.1662     1.6242   185.9959 </r>
       <r>    -4.1307     0.1158   186.0001 </r>
       <r>    -4.0951     0.1624   186.0058 </r>
       <r>    -4.0595     2.0868   186.0801 </r>
       <r>    -4.0239    10.5917   186.4569 </r>
       <r>    -3.9884    21.0814   187.2069 </r>
       <r>    -3.9528    16.5424   187.7954 </r>
       <r>    -3.9172     5.1076   187.9771 </r>
       <r>    -3.8816     0.6153   187.9990 </r>
       <r>    -3.8461     0.0286   188.0000 </r>
       <r>    -3.8105     0.0005   188.0000 </r>
       <r>    -3.7749     0.0000   188.0000 </r>
       <r>    -3.7393     0.0000   188.0000 </r>
       <r>    -3.7038     0.0000   188.0000 </r>
       <r>    -3.6682     0.0001   188.0000 </r>
       <r>    -3.6326     0.0079   188.0003 </r>
       <r>    -3.5970     0.2373   188.0087 </r>
       <r>    -3.5615     2.7348   188.1060 </r>
       <r>    -3.5259    12.2490   188.5418 </r>
       <r>    -3.4903    21.5371   189.3080 </r>
       <r>    -3.4547    14.9319   189.8392 </r>
       <r>    -3.4192     4.0702   189.9840 </r>
       <r>    -3.3836     0.4322   189.9994 </r>
       <r>    -3.3480     0.0177   190.0000 </r>
       <r>    -3.3124     0.0003   190.0000 </r>
       <r>    -3.2769     0.0000   190.0000 </r>
       <r>    -3.2413     0.0000   190.0000 </r>
       <r>    -3.2057     0.0000   190.0000 </r>
       <r>    -3.1701     0.0000   190.0000 </r>
       <r>    -3.1346     0.0000   190.0000 </r>
       <r>    -3.0990     0.0000   190.0000 </r>
       <r>    -3.0634     0.0000   190.0000 </r>
       <r>    -3.0278     0.0001   190.0000 </r>
       <r>    -2.9923     0.0053   190.0002 </r>
       <r>    -2.9567     0.1769   190.0065 </r>
       <r>    -2.9211     2.2888   190.0879 </r>
       <r>    -2.8855    12.0381   190.5162 </r>
       <r>    -2.8499    28.3708   191.5255 </r>
       <r>    -2.8144    35.0530   192.7725 </r>
       <r>    -2.7788    24.4885   193.6437 </r>
       <r>    -2.7432     8.6164   193.9502 </r>
       <r>    -2.7076     1.3167   193.9971 </r>
       <r>    -2.6721     0.0817   194.0000 </r>
       <r>    -2.6365     0.0626   194.0022 </r>
       <r>    -2.6009     1.2842   194.0479 </r>
       <r>    -2.5653    10.4838   194.4209 </r>
       <r>    -2.5298    33.4347   195.6103 </r>
       <r>    -2.4942    42.1024   197.1081 </r>
       <r>    -2.4586    22.4328   197.9062 </r>
       <r>    -2.4230    13.7512   198.3954 </r>
       <r>    -2.3875    25.7849   199.3127 </r>
       <r>    -2.3519    34.5526   200.5419 </r>
       <r>    -2.3163    27.3088   201.5134 </r>
       <r>    -2.2807    11.3971   201.9189 </r>
       <r>    -2.2452     2.1161   201.9942 </r>
       <r>    -2.2096     0.1587   201.9998 </r>
       <r>    -2.1740     0.0046   202.0000 </r>
       <r>    -2.1384     0.0001   202.0000 </r>
       <r>    -2.1029     0.0000   202.0000 </r>
       <r>    -2.0673     0.0007   202.0000 </r>
       <r>    -2.0317     0.0380   202.0014 </r>
       <r>    -1.9961     0.7566   202.0283 </r>
       <r>    -1.9606     5.8170   202.2352 </r>
       <r>    -1.9250    17.4649   202.8566 </r>
       <r>    -1.8894    20.6417   203.5909 </r>
       <r>    -1.8538     9.6164   203.9330 </r>
       <r>    -1.8183     1.7587   203.9956 </r>
       <r>    -1.7827     0.2420   204.0042 </r>
       <r>    -1.7471     1.6987   204.0646 </r>
       <r>    -1.7115     9.5612   204.4048 </r>
       <r>    -1.6760    22.5046   205.2054 </r>
       <r>    -1.6404    27.9151   206.1985 </r>
       <r>    -1.6048    26.9400   207.1569 </r>
       <r>    -1.5692    18.0840   207.8002 </r>
       <r>    -1.5337     9.4802   208.1375 </r>
       <r>    -1.4981    15.6465   208.6941 </r>
       <r>    -1.4625    21.5591   209.4611 </r>
       <r>    -1.4269    12.1947   209.8949 </r>
       <r>    -1.3914     2.7115   209.9914 </r>
       <r>    -1.3558     0.2343   209.9997 </r>
       <r>    -1.3202     0.0078   210.0000 </r>
       <r>    -1.2846     0.0001   210.0000 </r>
       <r>    -1.2491     0.0000   210.0000 </r>
       <r>    -1.2135     0.0000   210.0000 </r>
       <r>    -1.1779     0.0000   210.0000 </r>
       <r>    -1.1423     0.0000   210.0000 </r>
       <r>    -1.1067     0.0000   210.0000 </r>
       <r>    -1.0712     0.0002   210.0000 </r>
       <r>    -1.0356     0.0131   210.0005 </r>
       <r>    -1.0000     0.3467   210.0128 </r>
       <r>    -0.9644     3.5226   210.1381 </r>
       <r>    -0.9289    13.9594   210.6347 </r>
       <r>    -0.8933    22.3010   211.4281 </r>
       <r>    -0.8577    18.6066   212.0900 </r>
       <r>    -0.8221    20.5792   212.8222 </r>
       <r>    -0.7866    27.2117   213.7902 </r>
       <r>    -0.7510    35.7681   215.0627 </r>
       <r>    -0.7154    46.2495   216.7080 </r>
       <r>    -0.6798    37.2194   218.0321 </r>
       <r>    -0.6443    27.4459   219.0085 </r>
       <r>    -0.6087    19.6418   219.7073 </r>
       <r>    -0.5731     7.1335   219.9611 </r>
       <r>    -0.5375     1.3532   220.0092 </r>
       <r>    -0.5020     3.3223   220.1274 </r>
       <r>    -0.4664    13.4126   220.6046 </r>
       <r>    -0.4308    21.7318   221.3777 </r>
       <r>    -0.3952    15.1100   221.9153 </r>
       <r>    -0.3597    11.6322   222.3291 </r>
       <r>    -0.3241    20.0784   223.0434 </r>
       <r>    -0.2885    18.7774   223.7114 </r>
       <r>    -0.2529     7.0250   223.9613 </r>
       <r>    -0.2174     1.0283   223.9979 </r>
       <r>    -0.1818     0.0582   224.0000 </r>
       <r>    -0.1462     0.0013   224.0000 </r>
       <r>    -0.1106     0.0000   224.0000 </r>
       <r>    -0.0751     0.0000   224.0000 </r>
       <r>    -0.0395     0.0000   224.0000 </r>
       <r>    -0.0039     0.0000   224.0000 </r>
       <r>     0.0317     0.0000   224.0000 </r>
       <r>     0.0672     0.0000   224.0000 </r>
       <r>     0.1028     0.0000   224.0000 </r>
       <r>     0.1384     0.0000   224.0000 </r>
       <r>     0.1740     0.0000   224.0000 </r>
      </set>
     </set>
    </array>
   </total>
  </dos>
 </calculation>
 <structure name="finalpos" >
  <crystal>
   <varray name="basis" >
    <v>      26.37762092       0.00000000       0.00000000 </v>
    <v>       0.00000000      26.73697186       0.00000000 </v>
    <v>       0.00000000       0.00000000      25.30390948 </v>
   </varray>
   <i name="volume">  17845.77720609 </i>
   <varray name="rec_basis" >
    <v>       0.03791092       0.00000000       0.00000000 </v>
    <v>       0.00000000       0.03740139       0.00000000 </v>
    <v>       0.00000000       0.00000000       0.03951958 </v>
   </varray>
  </crystal>
  <varray name="positions" >
   <v>       0.58084002       0.53355449       0.56219894 </v>
   <v>       0.67232635       0.76301518       0.61296754 </v>
   <v>       0.60426475       0.73669359       0.53057228 </v>
   <v>       0.51242903       0.69001149       0.55865957 </v>
   <v>       0.59685627       0.63321369       0.71667154 </v>
   <v>       0.49781087       0.58877745       0.52770342 </v>
   <v>       0.68710591       0.67537202       0.55415787 </v>
   <v>       0.59310727       0.63358483       0.51291938 </v>
   <v>       0.67695986       0.50918102       0.61576994 </v>
   <v>       0.74034008       0.59840451       0.61544078 </v>
   <v>       0.52906432       0.61244549       0.63073347 </v>
   <v>       0.68574372       0.57344104       0.71026010 </v>
   <v>       0.58873870       0.53154541       0.67825735 </v>
   <v>       0.67861517       0.57207762       0.52532847 </v>
   <v>       0.68960737       0.67862113       0.67483639 </v>
   <v>       0.58639993       0.70540481       0.63684056 </v>
   <v>       0.63493319       0.60641937       0.61835298 </v>
  </varray>
 </structure>
</modeling>
