BLACK                                   
           1
    26.377621    0.000000    0.000000
     0.000000   26.736972    0.000000
     0.000000    0.000000   25.303909
   Ag
  17
Direct configuration=     1
   0.58193705  0.53186010  0.56125728
   0.67231718  0.76161021  0.61372727
   0.60479946  0.73589391  0.53052092
   0.51317917  0.68942591  0.55871047
   0.59609808  0.63304925  0.71793889
   0.49878830  0.58801589  0.52864687
   0.68968736  0.67524246  0.55092457
   0.59404898  0.63308275  0.50833059
   0.67759595  0.50963808  0.61620880
   0.74056981  0.59920516  0.61546445
   0.52626551  0.61293166  0.63365741
   0.68539086  0.57335059  0.71051340
   0.58786062  0.53171335  0.67720540
   0.67982950  0.57145795  0.52453399
   0.69003429  0.67860467  0.67700660
   0.58339874  0.70761823  0.64025080
   0.63334195  0.60906297  0.61677284
Direct configuration=     2
   0.58202197  0.53213923  0.56135171
   0.67222647  0.76145593  0.61364757
   0.60483406  0.73571700  0.53077812
   0.51334280  0.68928217  0.55871238
   0.59621988  0.63295063  0.71767692
   0.49894521  0.58810696  0.52875566
   0.68941211  0.67517655  0.55115323
   0.59404693  0.63309335  0.50862621
   0.67744678  0.50989308  0.61623775
   0.74025916  0.59919664  0.61550640
   0.52654962  0.61298825  0.63348912
   0.68523402  0.57346127  0.71020660
   0.58804420  0.53191585  0.67708231
   0.67968544  0.57156519  0.52477556
   0.68983783  0.67845589  0.67679443
   0.58360312  0.70747553  0.64003501
   0.63343321  0.60888962  0.61684159
Direct configuration=     3
   0.58216045  0.53259440  0.56150568
   0.67207854  0.76120436  0.61351759
   0.60489047  0.73542851  0.53119751
   0.51360962  0.68904778  0.55871550
   0.59641850  0.63278980  0.71724974
   0.49920108  0.58825548  0.52893307
   0.68896329  0.67506908  0.55152608
   0.59404358  0.63311063  0.50910827
   0.67720354  0.51030889  0.61628495
   0.73975259  0.59918273  0.61557480
   0.52701290  0.61308053  0.63321468
   0.68497827  0.57364176  0.70970633
   0.58834355  0.53224605  0.67688159
   0.67945054  0.57174007  0.52516948
   0.68951748  0.67821329  0.67644846
   0.58393638  0.70724283  0.63968314
   0.63358204  0.60860696  0.61695369
Direct configuration=     4
   0.58222836  0.53281762  0.56158119
   0.67200599  0.76108098  0.61345385
   0.60491813  0.73528704  0.53140318
   0.51374048  0.68893283  0.55871703
   0.59651590  0.63271093  0.71704025
   0.49932656  0.58832831  0.52902007
   0.68874318  0.67501637  0.55170894
   0.59404194  0.63311910  0.50934467
   0.67708425  0.51051281  0.61630810
   0.73950416  0.59917592  0.61560835
   0.52724010  0.61312579  0.63308010
   0.68485285  0.57373027  0.70946099
   0.58849035  0.53240799  0.67678315
   0.67933534  0.57182583  0.52536266
   0.68936037  0.67809431  0.67627879
   0.58409982  0.70712871  0.63951057
   0.63365502  0.60846833  0.61700866
Direct configuration=     5
   0.58219012  0.53299569  0.56158869
   0.67206017  0.76111411  0.61342480
   0.60484595  0.73532097  0.53148396
   0.51373664  0.68891657  0.55867105
   0.59647198  0.63280323  0.71707068
   0.49929533  0.58831011  0.52899943
   0.68864758  0.67496221  0.55188307
   0.59407034  0.63308662  0.50957338
   0.67707669  0.51042990  0.61629840
   0.73958202  0.59920461  0.61559622
   0.52745016  0.61313809  0.63294757
   0.68491330  0.57368495  0.70949729
   0.58841374  0.53235906  0.67685700
   0.67931781  0.57186307  0.52529487
   0.68925569  0.67809260  0.67613202
   0.58423780  0.70695233  0.63940656
   0.63357749  0.60852901  0.61694558
Direct configuration=     6
   0.58210483  0.53339287  0.56160543
   0.67218101  0.76118801  0.61335999
   0.60468494  0.73539665  0.53166414
   0.51372810  0.68888031  0.55856849
   0.59637402  0.63300910  0.71713854
   0.49922567  0.58826951  0.52895337
   0.68843435  0.67484141  0.55227146
   0.59413368  0.63301417  0.51008348
   0.67705982  0.51024497  0.61627677
   0.73975567  0.59926862  0.61556917
   0.52791866  0.61316554  0.63265198
   0.68504815  0.57358387  0.70957825
   0.58824287  0.53224994  0.67702171
   0.67927872  0.57194612  0.52514366
   0.68902220  0.67808879  0.67580465
   0.58454555  0.70655893  0.63917458
   0.63340456  0.60866435  0.61680489
Direct configuration=     7
   0.58211898  0.53332698  0.56160265
   0.67216096  0.76117575  0.61337074
   0.60471165  0.73538409  0.53163425
   0.51372951  0.68888632  0.55858550
   0.59639027  0.63297494  0.71712728
   0.49923723  0.58827624  0.52896101
   0.68846972  0.67486145  0.55220703
   0.59412317  0.63302619  0.50999885
   0.67706262  0.51027565  0.61628036
   0.73972686  0.59925800  0.61557366
   0.52784093  0.61316098  0.63270102
   0.68502578  0.57360064  0.70956482
   0.58827122  0.53226804  0.67699439
   0.67928521  0.57193234  0.52516874
   0.68906094  0.67808942  0.67585896
   0.58449449  0.70662420  0.63921307
   0.63343325  0.60864189  0.61682823
Direct configuration=     8
   0.58207202  0.53339448  0.56162948
   0.67227889  0.76135081  0.61334483
   0.60465637  0.73550712  0.53164381
   0.51360332  0.68892948  0.55850200
   0.59640118  0.63302388  0.71726018
   0.49906477  0.58825779  0.52886364
   0.68844017  0.67490556  0.55232608
   0.59408347  0.63305440  0.51017590
   0.67702042  0.51023576  0.61624009
   0.73978465  0.59923517  0.61555934
   0.52790794  0.61308995  0.63257066
   0.68502461  0.57357696  0.70952760
   0.58822948  0.53224678  0.67712610
   0.67934798  0.57189879  0.52511980
   0.68899563  0.67810325  0.67574478
   0.58468599  0.70648442  0.63906338
   0.63354592  0.60846854  0.61697289
Direct configuration=     9
   0.58193116  0.53359700  0.56170997
   0.67263268  0.76187599  0.61326711
   0.60449052  0.73587619  0.53167250
   0.51322474  0.68905895  0.55825150
   0.59643389  0.63317070  0.71765886
   0.49854738  0.58820242  0.52857151
   0.68835153  0.67503787  0.55268323
   0.59396436  0.63313903  0.51070706
   0.67689383  0.51011606  0.61611929
   0.73995803  0.59916670  0.61551638
   0.52810895  0.61287684  0.63217959
   0.68502110  0.57350593  0.70941594
   0.58810426  0.53218301  0.67752124
   0.67953629  0.57179813  0.52497296
   0.68879969  0.67814473  0.67540222
   0.58526046  0.70606510  0.63861432
   0.63388393  0.60794847  0.61740688
Direct configuration=    10
   0.58174871  0.53359379  0.56172723
   0.67270203  0.76217501  0.61321761
   0.60448395  0.73598975  0.53167900
   0.51312907  0.68910139  0.55823577
   0.59648735  0.63306268  0.71749718
   0.49842811  0.58826491  0.52847447
   0.68811431  0.67515543  0.55277274
   0.59388457  0.63323986  0.51104121
   0.67684175  0.51001924  0.61605010
   0.74004117  0.59905190  0.61549511
   0.52816560  0.61282786  0.63202506
   0.68505511  0.57343523  0.70951885
   0.58816421  0.53217902  0.67769323
   0.67947614  0.57185917  0.52507431
   0.68889426  0.67831008  0.67535095
   0.58542535  0.70594561  0.63824295
   0.63410111  0.60755220  0.61757479
Direct configuration=    11
   0.58162906  0.53359168  0.56173855
   0.67274750  0.76237109  0.61318515
   0.60447964  0.73606422  0.53168326
   0.51306634  0.68912922  0.55822546
   0.59652241  0.63299185  0.71739116
   0.49834990  0.58830589  0.52841084
   0.68795875  0.67523253  0.55283145
   0.59383225  0.63330599  0.51126033
   0.67680760  0.50995576  0.61600473
   0.74009570  0.59897662  0.61548116
   0.52820275  0.61279574  0.63192372
   0.68507740  0.57338887  0.70958634
   0.58820352  0.53217640  0.67780600
   0.67943670  0.57189919  0.52514076
   0.68895627  0.67841850  0.67531733
   0.58553347  0.70586725  0.63799941
   0.63424353  0.60729235  0.61768491
Direct configuration=    12
   0.58138978  0.53358747  0.56176119
   0.67283845  0.76276326  0.61312023
   0.60447102  0.73621315  0.53169178
   0.51294087  0.68918488  0.55820483
   0.59659253  0.63285017  0.71717912
   0.49819348  0.58838785  0.52828357
   0.68764764  0.67538672  0.55294885
   0.59372762  0.63343823  0.51169856
   0.67673930  0.50982878  0.61591398
   0.74020474  0.59882607  0.61545326
   0.52827704  0.61273149  0.63172106
   0.68512200  0.57329614  0.70972132
   0.58828214  0.53217117  0.67803156
   0.67935781  0.57197924  0.52527367
   0.68908030  0.67863536  0.67525009
   0.58574972  0.70571053  0.63751235
   0.63452837  0.60677264  0.61790513
Direct configuration=    13
   0.58148946  0.53358922  0.56175176
   0.67280056  0.76259989  0.61314727
   0.60447461  0.73615110  0.53168823
   0.51299314  0.68916169  0.55821343
   0.59656332  0.63290919  0.71726746
   0.49825864  0.58835371  0.52833659
   0.68777724  0.67532249  0.55289994
   0.59377121  0.63338314  0.51151600
   0.67676775  0.50988167  0.61595178
   0.74015932  0.59888879  0.61546489
   0.52824609  0.61275826  0.63180548
   0.68510342  0.57333477  0.70966509
   0.58824939  0.53217335  0.67793760
   0.67939067  0.57194589  0.52521831
   0.68902863  0.67854502  0.67527811
   0.58565963  0.70577582  0.63771526
   0.63440971  0.60698914  0.61781339
Direct configuration=    14
   0.58126476  0.53356190  0.56175543
   0.67278578  0.76280400  0.61310272
   0.60442704  0.73635775  0.53154276
   0.51289423  0.68927013  0.55824063
   0.59661274  0.63294292  0.71701597
   0.49815469  0.58843535  0.52818774
   0.68757883  0.67534751  0.55315137
   0.59365157  0.63340674  0.51187247
   0.67678308  0.50959110  0.61591131
   0.74022558  0.59879630  0.61547072
   0.52838136  0.61270417  0.63162654
   0.68528170  0.57329063  0.70989117
   0.58825806  0.53200007  0.67810156
   0.67922338  0.57208919  0.52530122
   0.68910654  0.67864632  0.67516576
   0.58590885  0.70560649  0.63737435
   0.63460461  0.60691256  0.61795885
Direct configuration=    15
   0.58118802  0.53355256  0.56175668
   0.67278073  0.76287372  0.61308751
   0.60441079  0.73642833  0.53149307
   0.51286045  0.68930716  0.55824992
   0.59662963  0.63295444  0.71693007
   0.49811919  0.58846324  0.52813690
   0.68751106  0.67535605  0.55323725
   0.59361071  0.63341480  0.51199421
   0.67678831  0.50949186  0.61589748
   0.74024821  0.59876471  0.61547271
   0.52842756  0.61268570  0.63156542
   0.68534259  0.57327556  0.70996839
   0.58826103  0.53194088  0.67815757
   0.67916624  0.57213813  0.52532954
   0.68913314  0.67868092  0.67512739
   0.58599397  0.70554865  0.63725792
   0.63467118  0.60688641  0.61800853
Direct configuration=    16
   0.58103453  0.53353390  0.56175919
   0.67277063  0.76301315  0.61305708
   0.60437829  0.73656948  0.53139371
   0.51279289  0.68938123  0.55826850
   0.59666339  0.63297748  0.71675828
   0.49804819  0.58851901  0.52803523
   0.68737552  0.67537315  0.55340899
   0.59352899  0.63343092  0.51223771
   0.67679878  0.50929338  0.61586983
   0.74029347  0.59870154  0.61547669
   0.52851996  0.61264876  0.63144318
   0.68546436  0.57324541  0.71012282
   0.58826696  0.53182252  0.67826957
   0.67905196  0.57223601  0.52538617
   0.68918636  0.67875012  0.67505065
   0.58616421  0.70543299  0.63702505
   0.63480431  0.60683410  0.61810790
Direct configuration=    17
   0.58097382  0.53356366  0.56195618
   0.67264415  0.76309641  0.61301044
   0.60427779  0.73673871  0.53106591
   0.51266912  0.68957418  0.55834112
   0.59676216  0.63308963  0.71656196
   0.49788020  0.58861429  0.52784044
   0.68728032  0.67548637  0.55377804
   0.59332566  0.63348530  0.51258045
   0.67675991  0.50914859  0.61583371
   0.74032438  0.59857628  0.61553842
   0.52874751  0.61253510  0.63119517
   0.68563898  0.57327830  0.71021799
   0.58839591  0.53164525  0.67823448
   0.67888801  0.57224018  0.52543490
   0.68930983  0.67876383  0.67495687
   0.58643437  0.70533532  0.63681638
   0.63483069  0.60659174  0.61830809
Direct configuration=    18
   0.58095365  0.53357354  0.56202161
   0.67260214  0.76312406  0.61299495
   0.60424441  0.73679491  0.53095704
   0.51262801  0.68963826  0.55836524
   0.59679496  0.63312689  0.71649675
   0.49782441  0.58864593  0.52777574
   0.68724871  0.67552398  0.55390062
   0.59325813  0.63350336  0.51269429
   0.67674700  0.50910050  0.61582171
   0.74033465  0.59853468  0.61555892
   0.52882309  0.61249734  0.63111280
   0.68569698  0.57328922  0.71024960
   0.58843874  0.53158638  0.67822283
   0.67883355  0.57224157  0.52545109
   0.68935083  0.67876839  0.67492572
   0.58652410  0.70530289  0.63674707
   0.63483945  0.60651124  0.61837458
Direct configuration=    19
   0.58092709  0.53358006  0.56210053
   0.67254256  0.76310325  0.61299316
   0.60422402  0.73673212  0.53076530
   0.51255233  0.68975703  0.55845948
   0.59681733  0.63316324  0.71664863
   0.49779239  0.58866733  0.52777180
   0.68717971  0.67551635  0.55404000
   0.59325550  0.63358789  0.51278376
   0.67678223  0.50917994  0.61580567
   0.74028410  0.59847058  0.61556518
   0.52884975  0.61245709  0.63092235
   0.68570761  0.57335335  0.71022357
   0.58854844  0.53152926  0.67820616
   0.67877486  0.57218202  0.52546728
   0.68947910  0.67868425  0.67490194
   0.58649957  0.70539881  0.63670820
   0.63492621  0.60640058  0.61830755
Direct configuration=    20
   0.58091940  0.53358195  0.56212338
   0.67252531  0.76309723  0.61299263
   0.60421812  0.73671394  0.53070979
   0.51253041  0.68979142  0.55848677
   0.59682381  0.63317377  0.71669261
   0.49778312  0.58867352  0.52777066
   0.68715973  0.67551414  0.55408036
   0.59325474  0.63361236  0.51280966
   0.67679244  0.50920294  0.61580102
   0.74026946  0.59845202  0.61556700
   0.52885747  0.61244544  0.63086721
   0.68571068  0.57337191  0.71021603
   0.58858021  0.53151272  0.67820133
   0.67875787  0.57216477  0.52547196
   0.68951623  0.67865989  0.67489505
   0.58649247  0.70542658  0.63669695
   0.63495133  0.60636854  0.61828814
Direct configuration=    21
   0.58092381  0.53358087  0.56211028
   0.67253520  0.76310068  0.61299293
   0.60422151  0.73672436  0.53074161
   0.51254298  0.68977171  0.55847113
   0.59682010  0.63316773  0.71666740
   0.49778843  0.58866997  0.52777131
   0.68717118  0.67551541  0.55405723
   0.59325517  0.63359833  0.51279481
   0.67678659  0.50918976  0.61580368
   0.74027785  0.59846265  0.61556596
   0.52885304  0.61245212  0.63089882
   0.68570892  0.57336127  0.71022035
   0.58856200  0.53152220  0.67820410
   0.67876761  0.57217466  0.52546928
   0.68949495  0.67867385  0.67489900
   0.58649654  0.70541066  0.63670340
   0.63493693  0.60638690  0.61829927
Direct configuration=    22
   0.58084467  0.53355388  0.56216084
   0.67247568  0.76309066  0.61299514
   0.60421634  0.73667198  0.53054864
   0.51246029  0.68991238  0.55858190
   0.59685179  0.63319672  0.71671802
   0.49776527  0.58870587  0.52775985
   0.68712224  0.67546413  0.55414502
   0.59323750  0.63363590  0.51285354
   0.67687639  0.50918547  0.61580820
   0.74033605  0.59842274  0.61554560
   0.52895904  0.61244512  0.63076032
   0.68570057  0.57341783  0.71021828
   0.58866901  0.53151415  0.67821072
   0.67873578  0.57211439  0.52536772
   0.68955789  0.67859306  0.67487078
   0.58644810  0.70541246  0.63675740
   0.63488620  0.60642640  0.61836859
Direct configuration=    23
   0.58081189  0.53354270  0.56218178
   0.67245102  0.76308651  0.61299606
   0.60421420  0.73665028  0.53046870
   0.51242603  0.68997066  0.55862779
   0.59686491  0.63320872  0.71673899
   0.49775568  0.58872074  0.52775510
   0.68710197  0.67544288  0.55418139
   0.59323017  0.63365147  0.51287787
   0.67691359  0.50918370  0.61581006
   0.74036016  0.59840620  0.61553716
   0.52900295  0.61244222  0.63070295
   0.68569711  0.57344126  0.71021742
   0.58871334  0.53151082  0.67821346
   0.67872260  0.57208943  0.52532566
   0.68958397  0.67855959  0.67485909
   0.58642803  0.70541321  0.63677976
   0.63486519  0.60644276  0.61839730
Direct configuration=    24
   0.58083340  0.53355004  0.56216803
   0.67246720  0.76308923  0.61299546
   0.60421560  0.73666452  0.53052116
   0.51244851  0.68993242  0.55859768
   0.59685630  0.63320084  0.71672523
   0.49776198  0.58871098  0.52775821
   0.68711527  0.67545682  0.55415752
   0.59323498  0.63364125  0.51286190
   0.67688918  0.50918486  0.61580884
   0.74034434  0.59841705  0.61554270
   0.52897413  0.61244412  0.63074060
   0.68569938  0.57342588  0.71021799
   0.58868425  0.53151300  0.67821166
   0.67873125  0.57210581  0.52535326
   0.68956686  0.67858155  0.67486677
   0.58644120  0.70541272  0.63676508
   0.63487898  0.60643202  0.61837846
Direct configuration=    25
   0.58081940  0.53355811  0.56218255
   0.67238827  0.76304080  0.61299698
   0.60424519  0.73668928  0.53050646
   0.51239602  0.69000699  0.55865159
   0.59685610  0.63322055  0.71669137
   0.49781579  0.58874266  0.52771634
   0.68710679  0.67538560  0.55418119
   0.59315284  0.63358708  0.51290678
   0.67694249  0.50916646  0.61578676
   0.74035373  0.59841970  0.61548378
   0.52906363  0.61245503  0.63071007
   0.68572227  0.57343580  0.71025326
   0.58872214  0.53153041  0.67824184
   0.67867401  0.57207870  0.52532268
   0.68959669  0.67859233  0.67484511
   0.58642172  0.70538862  0.63682967
   0.63486573  0.60646501  0.61836414
Direct configuration=    26
   0.58082249  0.53355633  0.56217935
   0.67240568  0.76305149  0.61299664
   0.60423866  0.73668382  0.53050970
   0.51240760  0.68999054  0.55863970
   0.59685614  0.63321620  0.71669884
   0.49780392  0.58873567  0.52772558
   0.68710866  0.67540132  0.55417597
   0.59317096  0.63359903  0.51289688
   0.67693073  0.50917052  0.61579163
   0.74035166  0.59841912  0.61549678
   0.52904389  0.61245263  0.63071680
   0.68571722  0.57343361  0.71024548
   0.58871378  0.53152657  0.67823518
   0.67868664  0.57208468  0.52532942
   0.68959011  0.67858995  0.67484989
   0.58642602  0.70539394  0.63681542
   0.63486865  0.60645774  0.61836730
Direct configuration=    27
   0.58082150  0.53355690  0.56218037
   0.67240013  0.76304808  0.61299675
   0.60424074  0.73668556  0.53050867
   0.51240391  0.68999578  0.55864349
   0.59685613  0.63321758  0.71669646
   0.49780770  0.58873789  0.52772264
   0.68710806  0.67539631  0.55417763
   0.59316519  0.63359522  0.51290004
   0.67693447  0.50916922  0.61579008
   0.74035232  0.59841931  0.61549263
   0.52905018  0.61245339  0.63071466
   0.68571883  0.57343431  0.71024796
   0.58871644  0.53152780  0.67823730
   0.67868262  0.57208278  0.52532728
   0.68959221  0.67859071  0.67484836
   0.58642465  0.70539224  0.63681996
   0.63486772  0.60646005  0.61836629
Direct configuration=    28
   0.58084002  0.53355449  0.56219894
   0.67232635  0.76301518  0.61296754
   0.60426475  0.73669359  0.53057228
   0.51242903  0.69001149  0.55865957
   0.59685627  0.63321369  0.71667154
   0.49781087  0.58877745  0.52770342
   0.68710591  0.67537202  0.55415787
   0.59310727  0.63358483  0.51291938
   0.67695986  0.50918102  0.61576994
   0.74034008  0.59840451  0.61544078
   0.52906432  0.61244549  0.63073347
   0.68574372  0.57344104  0.71026010
   0.58873870  0.53154541  0.67825735
   0.67861517  0.57207762  0.52532847
   0.68960737  0.67862113  0.67483639
   0.58639993  0.70540481  0.63684056
   0.63493319  0.60641937  0.61835298
