  12  12   0   0
  0.1405101E+04  0.2509731E-08  0.2639703E-08  0.2545110E-08  0.5000000E-15
  1.000000000000000E-004
  CAR 
 BLACK                                   
      0.15259896     -9.83092073  301     -4.17333292      1.00000000
     -9.831  0.0000E+00  0.0000E+00
     -9.798  0.0000E+00  0.0000E+00
     -9.764  0.0000E+00  0.0000E+00
     -9.731  0.0000E+00  0.0000E+00
     -9.698  0.0000E+00  0.0000E+00
     -9.665  0.0000E+00  0.0000E+00
     -9.631  0.0000E+00  0.0000E+00
     -9.598  0.1274E-14  0.4241E-16
     -9.565  0.1137E-11  0.3789E-13
     -9.531  0.4259E-09  0.1421E-10
     -9.498  0.6718E-07  0.2250E-08
     -9.465  0.4490E-05  0.1517E-06
     -9.432  0.1280E-03  0.4412E-05
     -9.398  0.1570E-02  0.5667E-04
     -9.365  0.8358E-02  0.3348E-03
     -9.332  0.1948E-01  0.9832E-03
     -9.298  0.2067E-01  0.1671E-02
     -9.265  0.1481E-01  0.2164E-02
     -9.232  0.2139E-01  0.2876E-02
     -9.199  0.3403E-01  0.4008E-02
     -9.165  0.3456E-01  0.5158E-02
     -9.132  0.2503E-01  0.5991E-02
     -9.099  0.2235E-01  0.6735E-02
     -9.066  0.2271E-01  0.7491E-02
     -9.032  0.1657E-01  0.8043E-02
     -8.999  0.2235E-01  0.8786E-02
     -8.966  0.4043E-01  0.1013E-01
     -8.932  0.4129E-01  0.1151E-01
     -8.899  0.3041E-01  0.1252E-01
     -8.866  0.2762E-01  0.1344E-01
     -8.833  0.2743E-01  0.1435E-01
     -8.799  0.3243E-01  0.1543E-01
     -8.766  0.3846E-01  0.1671E-01
     -8.733  0.3891E-01  0.1800E-01
     -8.699  0.3335E-01  0.1911E-01
     -8.666  0.2198E-01  0.1984E-01
     -8.633  0.1963E-01  0.2050E-01
     -8.600  0.3886E-01  0.2179E-01
     -8.566  0.6300E-01  0.2389E-01
     -8.533  0.7443E-01  0.2636E-01
     -8.500  0.6474E-01  0.2852E-01
     -8.467  0.3883E-01  0.2981E-01
     -8.433  0.2521E-01  0.3065E-01
     -8.400  0.2552E-01  0.3150E-01
     -8.367  0.2482E-01  0.3233E-01
     -8.333  0.2850E-01  0.3327E-01
     -8.300  0.3612E-01  0.3448E-01
     -8.267  0.4506E-01  0.3598E-01
     -8.234  0.4084E-01  0.3733E-01
     -8.200  0.2788E-01  0.3826E-01
     -8.167  0.3330E-01  0.3937E-01
     -8.134  0.4474E-01  0.4086E-01
     -8.100  0.4171E-01  0.4225E-01
     -8.067  0.3116E-01  0.4328E-01
     -8.034  0.1835E-01  0.4389E-01
     -8.001  0.1703E-01  0.4446E-01
     -7.967  0.3851E-01  0.4574E-01
     -7.934  0.5816E-01  0.4768E-01
     -7.901  0.4910E-01  0.4931E-01
     -7.867  0.3332E-01  0.5042E-01
     -7.834  0.3623E-01  0.5163E-01
     -7.801  0.4041E-01  0.5297E-01
     -7.768  0.3539E-01  0.5415E-01
     -7.734  0.4112E-01  0.5552E-01
     -7.701  0.5420E-01  0.5732E-01
     -7.668  0.4986E-01  0.5898E-01
     -7.635  0.3532E-01  0.6016E-01
     -7.601  0.3982E-01  0.6148E-01
     -7.568  0.5923E-01  0.6345E-01
     -7.535  0.6312E-01  0.6555E-01
     -7.501  0.4738E-01  0.6713E-01
     -7.468  0.3632E-01  0.6834E-01
     -7.435  0.5097E-01  0.7003E-01
     -7.402  0.7241E-01  0.7244E-01
     -7.368  0.7738E-01  0.7502E-01
     -7.335  0.8248E-01  0.7776E-01
     -7.302  0.9159E-01  0.8081E-01
     -7.268  0.9472E-01  0.8396E-01
     -7.235  0.8174E-01  0.8668E-01
     -7.202  0.6150E-01  0.8873E-01
     -7.169  0.5229E-01  0.9047E-01
     -7.135  0.5577E-01  0.9233E-01
     -7.102  0.6503E-01  0.9449E-01
     -7.069  0.7299E-01  0.9692E-01
     -7.036  0.7640E-01  0.9946E-01
     -7.002  0.7241E-01  0.1019E+00
     -6.969  0.6107E-01  0.1039E+00
     -6.936  0.5715E-01  0.1058E+00
     -6.902  0.6533E-01  0.1080E+00
     -6.869  0.7380E-01  0.1104E+00
     -6.836  0.6666E-01  0.1127E+00
     -6.803  0.4232E-01  0.1141E+00
     -6.769  0.3346E-01  0.1152E+00
     -6.736  0.4104E-01  0.1165E+00
     -6.703  0.4676E-01  0.1181E+00
     -6.669  0.4523E-01  0.1196E+00
     -6.636  0.3756E-01  0.1209E+00
     -6.603  0.2387E-01  0.1216E+00
     -6.570  0.8864E-02  0.1219E+00
     -6.536  0.1593E-02  0.1220E+00
     -6.503  0.1307E-03  0.1220E+00
     -6.470  0.8970E-04  0.1220E+00
     -6.437  0.1172E-02  0.1220E+00
     -6.403  0.6987E-02  0.1223E+00
     -6.370  0.1818E-01  0.1229E+00
     -6.337  0.2076E-01  0.1236E+00
     -6.303  0.1041E-01  0.1239E+00
     -6.270  0.2282E-02  0.1240E+00
     -6.237  0.2174E-03  0.1240E+00
     -6.204  0.8924E-05  0.1240E+00
     -6.170  0.1565E-06  0.1240E+00
     -6.137  0.1164E-08  0.1240E+00
     -6.104  0.3653E-11  0.1240E+00
     -6.070  0.1022E-13  0.1240E+00
     -6.037  0.4043E-11  0.1240E+00
     -6.004  0.1270E-08  0.1240E+00
     -5.971  0.1684E-06  0.1240E+00
     -5.937  0.9467E-05  0.1240E+00
     -5.904  0.2275E-03  0.1240E+00
     -5.871  0.2355E-02  0.1241E+00
     -5.838  0.1059E-01  0.1244E+00
     -5.804  0.2085E-01  0.1251E+00
     -5.771  0.1802E-01  0.1257E+00
     -5.738  0.6831E-02  0.1260E+00
     -5.704  0.1131E-02  0.1260E+00
     -5.671  0.8108E-04  0.1260E+00
     -5.638  0.2498E-05  0.1260E+00
     -5.605  0.3280E-07  0.1260E+00
     -5.571  0.1823E-09  0.1260E+00
     -5.538  0.4264E-12  0.1260E+00
     -5.505  0.4137E-15  0.1260E+00
     -5.471  0.0000E+00  0.1260E+00
     -5.438  0.0000E+00  0.1260E+00
     -5.405  0.0000E+00  0.1260E+00
     -5.372  0.0000E+00  0.1260E+00
     -5.338  0.0000E+00  0.1260E+00
     -5.305  0.0000E+00  0.1260E+00
     -5.272  0.0000E+00  0.1260E+00
     -5.239  0.0000E+00  0.1260E+00
     -5.205  0.0000E+00  0.1260E+00
     -5.172  0.0000E+00  0.1260E+00
     -5.139  0.6005E-16  0.1260E+00
     -5.105  0.7796E-13  0.1260E+00
     -5.072  0.4166E-10  0.1260E+00
     -5.039  0.9361E-08  0.1260E+00
     -5.006  0.8890E-06  0.1260E+00
     -4.972  0.3591E-04  0.1260E+00
     -4.939  0.6219E-03  0.1260E+00
     -4.906  0.4656E-02  0.1262E+00
     -4.872  0.1519E-01  0.1267E+00
     -4.839  0.2172E-01  0.1274E+00
     -4.806  0.1364E-01  0.1279E+00
     -4.773  0.3754E-02  0.1280E+00
     -4.739  0.4499E-03  0.1280E+00
     -4.706  0.3555E-04  0.1280E+00
     -4.673  0.2782E-03  0.1280E+00
     -4.639  0.2704E-02  0.1281E+00
     -4.606  0.1145E-01  0.1285E+00
     -4.573  0.2121E-01  0.1292E+00
     -4.540  0.1734E-01  0.1298E+00
     -4.506  0.7324E-02  0.1300E+00
     -4.473  0.7915E-02  0.1303E+00
     -4.440  0.1821E-01  0.1309E+00
     -4.407  0.2078E-01  0.1316E+00
     -4.373  0.1044E-01  0.1319E+00
     -4.340  0.2296E-02  0.1320E+00
     -4.307  0.2194E-03  0.1320E+00
     -4.273  0.9030E-05  0.1320E+00
     -4.240  0.1588E-06  0.1320E+00
     -4.207  0.1185E-08  0.1320E+00
     -4.174  0.3728E-11  0.1320E+00
     -4.140  0.4924E-14  0.1320E+00
     -4.107  0.0000E+00  0.1320E+00
     -4.074  0.0000E+00  0.1320E+00
     -4.040  0.0000E+00  0.1320E+00
     -4.007  0.0000E+00  0.1320E+00
     -3.974  0.0000E+00  0.1320E+00
     -3.941  0.0000E+00  0.1320E+00
     -3.907  0.0000E+00  0.1320E+00
     -3.874  0.0000E+00  0.1320E+00
     -3.841  0.0000E+00  0.1320E+00
     -3.808  0.0000E+00  0.1320E+00
     -3.774  0.0000E+00  0.1320E+00
     -3.741  0.0000E+00  0.1320E+00
     -3.708  0.0000E+00  0.1320E+00
     -3.674  0.0000E+00  0.1320E+00
     -3.641  0.0000E+00  0.1320E+00
     -3.608  0.0000E+00  0.1320E+00
     -3.575  0.2369E-15  0.1320E+00
     -3.541  0.2577E-12  0.1320E+00
     -3.508  0.1178E-09  0.1320E+00
     -3.475  0.2265E-07  0.1320E+00
     -3.441  0.1843E-05  0.1320E+00
     -3.408  0.6389E-04  0.1320E+00
     -3.375  0.9506E-03  0.1320E+00
     -3.342  0.6124E-02  0.1322E+00
     -3.308  0.1722E-01  0.1328E+00
     -3.275  0.2123E-01  0.1335E+00
     -3.242  0.1150E-01  0.1339E+00
     -3.209  0.2923E-02  0.1340E+00
     -3.175  0.2427E-02  0.1341E+00
     -3.142  0.1006E-01  0.1344E+00
     -3.109  0.2057E-01  0.1351E+00
     -3.075  0.1849E-01  0.1357E+00
     -3.042  0.7292E-02  0.1360E+00
     -3.009  0.1256E-02  0.1360E+00
     -2.976  0.9406E-04  0.1360E+00
     -2.942  0.1695E-04  0.1360E+00
     -2.909  0.3056E-03  0.1360E+00
     -2.876  0.2888E-02  0.1361E+00
     -2.842  0.1187E-01  0.1365E+00
     -2.809  0.2136E-01  0.1372E+00
     -2.776  0.1687E-01  0.1378E+00
     -2.743  0.5847E-02  0.1380E+00
     -2.709  0.8839E-03  0.1380E+00
     -2.676  0.5784E-04  0.1380E+00
     -2.643  0.1653E-05  0.1380E+00
     -2.610  0.2284E-05  0.1380E+00
     -2.576  0.7509E-04  0.1380E+00
     -2.543  0.1069E-02  0.1380E+00
     -2.510  0.6597E-02  0.1383E+00
     -2.476  0.1777E-01  0.1388E+00
     -2.443  0.2109E-01  0.1396E+00
     -2.410  0.1226E-01  0.1400E+00
     -2.377  0.1020E-01  0.1403E+00
     -2.343  0.1914E-01  0.1409E+00
     -2.310  0.2029E-01  0.1416E+00
     -2.277  0.9606E-02  0.1419E+00
     -2.243  0.2791E-02  0.1420E+00
     -2.210  0.5763E-02  0.1422E+00
     -2.177  0.1654E-01  0.1428E+00
     -2.144  0.2146E-01  0.1435E+00
     -2.110  0.1223E-01  0.1439E+00
     -2.077  0.3088E-02  0.1440E+00
     -2.044  0.9369E-03  0.1440E+00
     -2.010  0.4590E-02  0.1442E+00
     -1.977  0.1506E-01  0.1447E+00
     -1.944  0.2174E-01  0.1454E+00
     -1.911  0.1377E-01  0.1459E+00
     -1.877  0.3825E-02  0.1460E+00
     -1.844  0.4624E-03  0.1460E+00
     -1.811  0.2414E-04  0.1460E+00
     -1.778  0.5398E-06  0.1460E+00
     -1.744  0.5129E-08  0.1460E+00
     -1.711  0.2059E-10  0.1460E+00
     -1.678  0.3472E-13  0.1460E+00
     -1.644  0.2669E-16  0.1460E+00
     -1.611  0.0000E+00  0.1460E+00
     -1.578  0.6672E-17  0.1460E+00
     -1.545  0.8694E-14  0.1460E+00
     -1.511  0.6136E-11  0.1460E+00
     -1.478  0.1818E-08  0.1460E+00
     -1.445  0.2273E-06  0.1460E+00
     -1.411  0.1206E-04  0.1460E+00
     -1.378  0.2737E-03  0.1460E+00
     -1.345  0.2677E-02  0.1461E+00
     -1.312  0.1140E-01  0.1465E+00
     -1.278  0.2154E-01  0.1472E+00
     -1.245  0.2047E-01  0.1479E+00
     -1.212  0.1870E-01  0.1485E+00
     -1.179  0.2334E-01  0.1493E+00
     -1.145  0.2210E-01  0.1500E+00
     -1.112  0.2212E-01  0.1507E+00
     -1.079  0.2221E-01  0.1515E+00
     -1.045  0.1214E-01  0.1519E+00
     -1.012  0.2987E-02  0.1520E+00
     -0.979  0.3220E-03  0.1520E+00
     -0.946  0.6131E-04  0.1520E+00
     -0.912  0.7525E-03  0.1520E+00
     -0.879  0.5271E-02  0.1522E+00
     -0.846  0.1610E-01  0.1527E+00
     -0.812  0.2158E-01  0.1535E+00
     -0.779  0.1279E-01  0.1539E+00
     -0.746  0.4553E-02  0.1540E+00
     -0.713  0.7753E-02  0.1543E+00
     -0.679  0.1860E-01  0.1549E+00
     -0.646  0.2051E-01  0.1556E+00
     -0.613  0.9954E-02  0.1559E+00
     -0.580  0.2451E-02  0.1560E+00
     -0.546  0.3331E-02  0.1561E+00
     -0.513  0.1242E-01  0.1565E+00
     -0.480  0.2152E-01  0.1572E+00
     -0.446  0.1652E-01  0.1578E+00
     -0.413  0.7201E-02  0.1580E+00
     -0.380  0.9679E-02  0.1584E+00
     -0.347  0.1988E-01  0.1590E+00
     -0.313  0.1943E-01  0.1597E+00
     -0.280  0.8356E-02  0.1599E+00
     -0.247  0.1570E-02  0.1600E+00
     -0.213  0.1280E-03  0.1600E+00
     -0.180  0.4490E-05  0.1600E+00
     -0.147  0.6718E-07  0.1600E+00
     -0.114  0.4259E-09  0.1600E+00
     -0.080  0.1137E-11  0.1600E+00
     -0.047  0.1274E-14  0.1600E+00
     -0.014  0.0000E+00  0.1600E+00
      0.019  0.0000E+00  0.1600E+00
      0.053  0.0000E+00  0.1600E+00
      0.086  0.0000E+00  0.1600E+00
      0.119  0.0000E+00  0.1600E+00
      0.153  0.0000E+00  0.1600E+00
