   12   12 1000    1
  0.1405101E+04  0.2509731E-08  0.2639703E-08  0.2545110E-08  0.5000000E-15
  1.000000000000000E-004
  CAR 
 BLACK                                   
    132      1     80
 
  0.0000000E+00  0.0000000E+00  0.0000000E+00  0.1000000E+01
    1       -9.330921   1.000000
    2       -9.221356   1.000000
    3       -9.176272   1.000000
    4       -9.088163   1.000000
    5       -8.976529   1.000000
    6       -8.960067   1.000000
    7       -8.881665   1.000000
    8       -8.807377   1.000000
    9       -8.759257   1.000000
   10       -8.708381   1.000000
   11       -8.602494   1.000000
   12       -8.578542   1.000000
   13       -8.545572   1.000000
   14       -8.527949   1.000000
   15       -8.506334   1.000000
   16       -8.419084   1.000000
   17       -8.339995   1.000000
   18       -8.276826   1.000000
   19       -8.257285   1.000000
   20       -8.165333   1.000000
   21       -8.137500   1.000000
   22       -8.082312   1.000000
   23       -7.965156   1.000000
   24       -7.948524   1.000000
   25       -7.921835   1.000000
   26       -7.842808   1.000000
   27       -7.807187   1.000000
   28       -7.734445   1.000000
   29       -7.707171   1.000000
   30       -7.678862   1.000000
   31       -7.600031   1.000000
   32       -7.566991   1.000000
   33       -7.555562   1.000000
   34       -7.512448   1.000000
   35       -7.431147   1.000000
   36       -7.423875   1.000000
   37       -7.401230   1.000000
   38       -7.362571   1.000000
   39       -7.340969   1.000000
   40       -7.323408   1.000000
   41       -7.292952   1.000000
   42       -7.279395   1.000000
   43       -7.265247   1.000000
   44       -7.238888   1.000000
   45       -7.198558   1.000000
   46       -7.155832   1.000000
   47       -7.119430   1.000000
   48       -7.095899   1.000000
   49       -7.061160   1.000000
   50       -7.048596   1.000000
   51       -7.005857   1.000000
   52       -7.001765   1.000000
   53       -6.939028   1.000000
   54       -6.921304   1.000000
   55       -6.879305   1.000000
   56       -6.858406   1.000000
   57       -6.852224   1.000000
   58       -6.768950   1.000000
   59       -6.723698   1.000000
   60       -6.686686   1.000000
   61       -6.637076   1.000000
   62       -6.364606   1.000000
   63       -5.810140   1.000000
   64       -4.857971   1.000000
   65       -4.581273   1.000000
   66       -4.434350   1.000000
   67       -3.299881   0.000000
   68       -3.112994   0.000000
   69       -2.818708   0.000000
   70       -2.469656   0.000000
   71       -2.340428   0.000000
   72       -2.166341   0.000000
   73       -1.962385   0.000000
   74       -1.286534   0.000000
   75       -1.189659   0.000000
   76       -1.101843   0.000000
   77       -0.833925   0.000000
   78       -0.675368   0.000000
   79       -0.490744   0.000000
   80       -0.347401   0.000000
