 vasp.5.4.4.18Apr17-6-g9f103f2a35 (build Jun 19 2019 11:58:18) complex          
  
 executed on             LinuxIFC date 2022.07.17  11:02:24
 running on   32 total cores
 distrk:  each k-point on   32 cores,    1 groups
 distr:  one band on NCORES_PER_BAND=  16 cores,    2 groups


--------------------------------------------------------------------------------------------------------


 INCAR:
 POTCAR:   PAW_PBE Ag 06Sep2000                   

 ----------------------------------------------------------------------------- 
|                                                                             |
|           W    W    AA    RRRRR   N    N  II  N    N   GGGG   !!!           |
|           W    W   A  A   R    R  NN   N  II  NN   N  G    G  !!!           |
|           W    W  A    A  R    R  N N  N  II  N N  N  G       !!!           |
|           W WW W  AAAAAA  RRRRR   N  N N  II  N  N N  G  GGG   !            |
|           WW  WW  A    A  R   R   N   NN  II  N   NN  G    G                |
|           W    W  A    A  R    R  N    N  II  N    N   GGGG   !!!           |
|                                                                             |
|      For optimal performance we recommend to set                            |
|        NCORE= 4 - approx SQRT( number of cores)                             |
|      NCORE specifies how many cores store one orbital (NPAR=cpu/NCORE).     |
|      This setting can  greatly improve the performance of VASP for DFT.     |
|      The default,   NCORE=1            might be grossly inefficient         |
|      on modern multi-core architectures or massively parallel machines.     |
|      Do your own testing !!!!                                               |
|      Unfortunately you need to use the default for GW and RPA calculations. |
|      (for HF NCORE is supported but not extensively tested yet)             |
|                                                                             |
 ----------------------------------------------------------------------------- 

 POTCAR:   PAW_PBE Ag 06Sep2000                   
   VRHFIN =Ag : s1 d10                                                          
   LEXCH  = PE                                                                  
   EATOM  =  1037.4134 eV,   76.2477 Ry                                         
                                                                                
   TITEL  = PAW_PBE Ag 06Sep2000                                                
   LULTRA =        F    use ultrasoft PP ?                                      
   IUNSCR =        1    unscreen: 0-lin 1-nonlin 2-no                           
   RPACOR =    2.000    partial core radius                                     
   POMASS =  107.868; ZVAL   =   11.000    mass and valenz                      
   RCORE  =    2.400    outmost cutoff radius                                   
   RWIGS  =    2.840; RWIGS  =    1.503    wigner-seitz radius (au A)           
   ENMAX  =  249.846; ENMIN  =  187.385 eV                                      
   RCLOC  =    1.962    cutoff for local pot                                    
   LCOR   =        T    correct aug charges                                     
   LPAW   =        T    paw PP                                                  
   EAUG   =  412.496                                                            
   DEXC   =    -.047                                                            
   RMAX   =    2.917    core radius for proj-oper                               
   RAUG   =    1.300    factor for augmentation sphere                          
   RDEP   =    2.416    radius for radial grids                                 
   QCUT   =   -4.285; QGAM   =    8.570    optimization parameters              
                                                                                
   Description                                                                  
     l     E      TYP  RCUT    TYP  RCUT                                        
     2   .000     23  2.400                                                     
     2   .000     23  2.400                                                     
     0   .000     23  2.400                                                     
     0   .000     23  2.400                                                     
     1  -.200     23  2.400                                                     
     1  1.500     23  2.400                                                     
     3   .000      7   .000                                                     
  local pseudopotential read in
  partial core-charges read in
  atomic valenz-charges read in
  non local Contribution for L=           2  read in
    real space projection operators read in
  non local Contribution for L=           2  read in
    real space projection operators read in
  non local Contribution for L=           0  read in
    real space projection operators read in
  non local Contribution for L=           0  read in
    real space projection operators read in
  non local Contribution for L=           1  read in
    real space projection operators read in
  non local Contribution for L=           1  read in
    real space projection operators read in
    PAW grid and wavefunctions read in
 
   number of l-projection  operators is LMAX  =           6
   number of lm-projection operators is LMMAX =          18
 
 Optimization of the real space projectors (new method)

 maximal supplied QI-value         = 15.68
 optimisation between [QCUT,QGAM] = [ 10.20, 20.39] = [ 29.11,116.42] Ry 
 Optimized for a Real-space Cutoff    1.42 Angstroem

   l    n(q)    QCUT    max X(q) W(low)/X(q) W(high)/X(q)  e(spline) 
   2      8    10.195     3.831    0.87E-04    0.50E-04    0.39E-07
   2      8    10.195    20.184    0.33E-03    0.72E-03    0.15E-06
   0      9    10.195    16.770    0.37E-04    0.52E-05    0.77E-08
   0      9    10.195    80.708    0.39E-03    0.16E-03    0.65E-07
   1      8    10.195     6.696    0.51E-04    0.95E-04    0.27E-07
   1      8    10.195     8.973    0.13E-03    0.22E-03    0.14E-06
 PAW_PBE Ag 06Sep2000                   :
 energy of atom  1       EATOM=-1037.4134
 kinetic energy error for atom=    0.0091 (will be added to EATOM!!)
 
 
 POSCAR: 12-c1-7-75.xyz                          
  positions in cartesian coordinates
  No initial velocities read in
 exchange correlation table for  LEXCH =        8
   RHO(1)=    0.500       N(1)  =     2000
   RHO(2)=  100.500       N(2)  =     4000
 


--------------------------------------------------------------------------------------------------------


 ion  position               nearest neighbor table
   1  0.497  0.558  0.692-   9 2.73   5 2.77  12 2.83   2 2.83
   2  0.508  0.611  0.596-   6 2.68   5 2.74   7 2.76   1 2.83  12 2.85   9 2.98
   3  0.700  0.613  0.484-  10 2.70  11 2.83   7 2.87
   4  0.657  0.749  0.635-  10 2.68   6 2.78   8 2.79
   5  0.512  0.507  0.598-   2 2.74   1 2.77  12 2.82
   6  0.572  0.692  0.599-   2 2.68   4 2.78   9 2.82   7 2.83  10 2.86   8 2.90
   7  0.599  0.607  0.536-   2 2.76  11 2.78   6 2.83  10 2.87   3 2.87  12 2.93
   8  0.656  0.647  0.663-  12 2.76  11 2.78   4 2.79   9 2.82   6 2.90  10 2.90
   9  0.550  0.648  0.698-   1 2.73   8 2.82   6 2.82  12 2.97   2 2.98
  10  0.678  0.684  0.557-   4 2.68   3 2.70   6 2.86   7 2.87   8 2.90  11 2.93
  11  0.692  0.578  0.588-  12 2.75   7 2.78   8 2.78   3 2.83  10 2.93
  12  0.598  0.561  0.641-  11 2.75   8 2.76   5 2.82   1 2.83   2 2.85   7 2.93   9 2.97
 
  LATTYP: Found a simple orthorhombic cell.
 ALAT       =    25.0973120000
 B/A-ratio  =     1.0140966455
 C/A-ratio  =     1.0517871068
  
  Lattice vectors:
  
 A1 = ( -25.0973120000,   0.0000000000,   0.0000000000)
 A2 = (   0.0000000000,   0.0000000000, -25.4510999100)
 A3 = (   0.0000000000, -26.3970291770,   0.0000000000)


Analysis of symmetry for initial positions (statically):
=====================================================================
 Subroutine PRICEL returns:
 Original cell was already a primitive cell.
 

 Routine SETGRP: Setting up the symmetry group for a 
 simple orthorhombic supercell.


 Subroutine GETGRP returns: Found  1 space group operations
 (whereof  1 operations were pure point group operations)
 out of a pool of  8 trial point group operations.


The static configuration has the point symmetry C_1 .


Analysis of symmetry for dynamics (positions and initial velocities):
=====================================================================
 Subroutine PRICEL returns:
 Original cell was already a primitive cell.
 

 Routine SETGRP: Setting up the symmetry group for a 
 simple orthorhombic supercell.


 Subroutine GETGRP returns: Found  1 space group operations
 (whereof  1 operations were pure point group operations)
 out of a pool of  8 trial point group operations.


The dynamic configuration has the point symmetry C_1 .


 Subroutine INISYM returns: Found  1 space group operations
 (whereof  1 operations are pure point group operations),
 and found     1 'primitive' translations

 
 
 KPOINTS: Monkhorst Pack                          

Automatic generation of k-mesh.
Space group operators:
 irot       det(A)        alpha          n_x          n_y          n_z        tau_x        tau_y        tau_z
    1     1.000000     0.000000     1.000000     0.000000     0.000000     0.000000     0.000000     0.000000
 
 Subroutine IBZKPT returns following result:
 ===========================================
 
 Found      1 irreducible k-points:
 
 Following reciprocal coordinates:
            Coordinates               Weight
  0.000000  0.000000  0.000000      1.000000
 
 Following cartesian coordinates:
            Coordinates               Weight
  0.000000  0.000000  0.000000      1.000000
 


--------------------------------------------------------------------------------------------------------




 Dimension of arrays:
   k-points           NKPTS =      1   k-points in BZ     NKDIM =      1   number of bands    NBANDS=     80
   number of dos      NEDOS =    301   number of ions     NIONS =     12
   non local maximal  LDIM  =      6   non local SUM 2l+1 LMDIM =     18
   total plane-waves  NPLWV = ******
   max r-space proj   IRMAX =   1637   max aug-charges    IRDMAX=   6680
   dimension x,y,z NGX =   126 NGY =  140 NGZ =  126
   dimension x,y,z NGXF=   252 NGYF=  280 NGZF=  252
   support grid    NGXF=   252 NGYF=  280 NGZF=  252
   ions per type =              12
   NGX,Y,Z   is equivalent  to a cutoff of   8.35,  8.82,  8.23 a.u.
   NGXF,Y,Z  is equivalent  to a cutoff of  16.69, 17.63, 16.46 a.u.

 SYSTEM =  BLACK                                   
 POSCAR =  12-c1-7-75.xyz                          

 Startparameter for this run:
   NWRITE =      2    write-flag & timer
   PREC   = normal    normal or accurate (medium, high low for compatibility)
   ISTART =      0    job   : 0-new  1-cont  2-samecut
   ICHARG =      2    charge: 1-file 2-atom 10-const
   ISPIN  =      1    spin polarized calculation?
   LNONCOLLINEAR =      F non collinear calculations
   LSORBIT =      F    spin-orbit coupling
   INIWAV =      1    electr: 0-lowe 1-rand  2-diag
   LASPH  =      F    aspherical Exc in radial PAW
   METAGGA=      F    non-selfconsistent MetaGGA calc.

 Electronic Relaxation 1
   ENCUT  =  400.0 eV  29.40 Ry    5.42 a.u.  40.93 43.05 41.50*2*pi/ulx,y,z
   ENINI  =  400.0     initial cutoff
   ENAUG  =  412.5 eV  augmentation charge cutoff
   NELM   =    200;   NELMIN=  2; NELMDL= -5     # of ELM steps 
   EDIFF  = 0.1E-04   stopping-criterion for ELM
   LREAL  =      T    real-space projection
   NLSPLINE    = F    spline interpolate recip. space projectors
   LCOMPAT=      F    compatible to vasp.4.4
   GGA_COMPAT  = T    GGA compatible to vasp.4.4-vasp.4.6
   LMAXPAW     = -100 max onsite density
   LMAXMIX     =    2 max onsite mixed and CHGCAR
   VOSKOWN=      0    Vosko Wilk Nusair interpolation
   ROPT   =   -0.00050
 Ionic relaxation
   EDIFFG = -.1E-01   stopping-criterion for IOM
   NSW    =   1000    number of steps for IOM
   NBLOCK =      1;   KBLOCK =   1000    inner block; outer block 
   IBRION =      2    ionic relax: 0-MD 1-quasi-New 2-CG
   NFREE  =      1    steps in history (QN), initial steepest desc. (CG)
   ISIF   =      2    stress and relaxation
   IWAVPR =     11    prediction:  0-non 1-charg 2-wave 3-comb
   ISYM   =      2    0-nonsym 1-usesym 2-fastsym
   LCORR  =      T    Harris-Foulkes like correction to forces

   POTIM  = 0.5000    time-step for ionic-motion
   TEIN   =    0.0    initial temperature
   TEBEG  =    0.0;   TEEND  =   0.0 temperature during run
   SMASS  =  -3.00    Nose mass-parameter (am)
   estimated Nose-frequenzy (Omega)   =  0.10E-29 period in steps =****** mass=  -0.144E-25a.u.
   SCALEE = 1.0000    scale energy and forces
   NPACO  =    256;   APACO  = 16.0  distance and # of slots for P.C.
   PSTRESS=    0.0 pullay stress

  Mass of Ions in am
   POMASS = 107.87
  Ionic Valenz
   ZVAL   =  11.00
  Atomic Wigner-Seitz radii
   RWIGS  =  -1.00
  virtual crystal weights 
   VCA    =   1.00
   NELECT =     132.0000    total number of electrons
   NUPDOWN=      -1.0000    fix difference up-down

 DOS related values:
   EMIN   =  10.00;   EMAX   =-10.00  energy-range for DOS
   EFERMI =   0.00
   ISMEAR =     0;   SIGMA  =   0.05  broadening in eV -4-tet -1-fermi 0-gaus

 Electronic relaxation 2 (details)
   IALGO  =     68    algorithm
   LDIAG  =      T    sub-space diagonalisation (order eigenvalues)
   LSUBROT=      F    optimize rotation matrix (better conditioning)
   TURBO    =      0    0=normal 1=particle mesh
   IRESTART =      0    0=no restart 2=restart with 2 vectors
   NREBOOT  =      0    no. of reboots
   NMIN     =      0    reboot dimension
   EREF     =   0.00    reference energy to select bands
   IMIX   =      4    mixing-type and parameters
     AMIX     =   0.40;   BMIX     =  1.00
     AMIX_MAG =   1.60;   BMIX_MAG =  1.00
     AMIN     =   0.10
     WC   =   100.;   INIMIX=   1;  MIXPRE=   1;  MAXMIX= -45

 Intra band minimization:
   WEIMIN = 0.0010     energy-eigenvalue tresh-hold
   EBREAK =  0.31E-07  absolut break condition
   DEPER  =   0.30     relativ break condition  

   TIME   =   0.40     timestep for ELM

  volume/ion in A,a.u.               =    1405.10      9482.09
  Fermi-wavevector in a.u.,A,eV,Ry     =   0.325065  0.614283  1.437688  0.105667
  Thomas-Fermi vector in A             =   1.215735
 
 Write flags
   LWAVE        =      F    write WAVECAR
   LDOWNSAMPLE  =      F    k-point downsampling of WAVECAR
   LCHARG       =      F    write CHGCAR
   LVTOT        =      F    write LOCPOT, total local potential
   LVHAR        =      F    write LOCPOT, Hartree potential only
   LELF         =      F    write electronic localiz. function (ELF)
   LORBIT       =      0    0 simple, 1 ext, 2 COOP (PROOUT), +10 PAW based schemes


 Dipole corrections
   LMONO  =      F    monopole corrections only (constant potential shift)
   LDIPOL =      F    correct potential (dipole corrections)
   IDIPOL =      0    1-x, 2-y, 3-z, 4-all directions 
   EPSILON=  1.0000000 bulk dielectric constant

 Exchange correlation treatment:
   GGA     =    PE    GGA type
   LEXCH   =     8    internal setting for exchange type
   VOSKOWN=      0    Vosko Wilk Nusair interpolation
   LHFCALC =     F    Hartree Fock is set to
   LHFONE  =     F    Hartree Fock one center treatment
   AEXX    =    0.0000 exact exchange contribution

 Linear response parameters
   LEPSILON=     F    determine dielectric tensor
   LRPA    =     F    only Hartree local field effects (RPA)
   LNABLA  =     F    use nabla operator in PAW spheres
   LVEL    =     F    velocity operator in full k-point grid
   LINTERFAST=   F  fast interpolation
   KINTER  =     0    interpolate to denser k-point grid
   CSHIFT  =0.1000    complex shift for real part using Kramers Kronig
   OMEGAMAX=  -1.0    maximum frequency
   DEG_THRESHOLD= 0.2000000E-02 threshold for treating states as degnerate
   RTIME   =   -0.100 relaxation time in fs
  (WPLASMAI=    0.000 imaginary part of plasma frequency in eV, 0.658/RTIME)
   DFIELD  = 0.0000000 0.0000000 0.0000000 field for delta impulse in time
 
 Orbital magnetization related:
   ORBITALMAG=     F  switch on orbital magnetization
   LCHIMAG   =     F  perturbation theory with respect to B field
   DQ        =  0.001000  dq finite difference perturbation B field
   LLRAUG    =     F  two centre corrections for induced B field



--------------------------------------------------------------------------------------------------------


 conjugate gradient relaxation of ions
 charge density and potential will be updated during run
 non-spin polarized calculation
 RMM-DIIS sequential band-by-band and
  variant of blocked Davidson during initial phase
 perform sub-space diagonalisation
    before iterative eigenvector-optimisation
 modified Broyden-mixing scheme, WC =      100.0
 initial mixing is a Kerker type mixing with AMIX =  0.4000 and BMIX =      1.0000
 Hartree-type preconditioning will be used
 using additional bands           14
 real space projection scheme for non local part
 use partial core corrections
 calculate Harris-corrections to forces 
   (improved forces if not selfconsistent)
 use gradient corrections 
 use of overlap-Matrix (Vanderbilt PP)
 Gauss-broadening in eV      SIGMA  =   0.05


--------------------------------------------------------------------------------------------------------


  energy-cutoff  :      400.00
  volume of cell :    16861.21
      direct lattice vectors                 reciprocal lattice vectors
    25.097312000  0.000000000  0.000000000     0.039844905  0.000000000  0.000000000
     0.000000000 26.397029177  0.000000000     0.000000000  0.037883051  0.000000000
     0.000000000  0.000000000 25.451099910     0.000000000  0.000000000  0.039291033

  length of vectors
    25.097312000 26.397029177 25.451099910     0.039844905  0.037883051  0.039291033


 
 k-points in units of 2pi/SCALE and weight: Monkhorst Pack                          
   0.00000000  0.00000000  0.00000000       1.000
 
 k-points in reciprocal lattice and weights: Monkhorst Pack                          
   0.00000000  0.00000000  0.00000000       1.000
 
 position of ions in fractional coordinates (direct lattice) 
   0.49734997  0.55765583  0.69188359
   0.50761728  0.61063555  0.59573497
   0.70045188  0.61296600  0.48360206
   0.65737138  0.74923970  0.63488736
   0.51157334  0.50690071  0.59750783
   0.57228509  0.69157810  0.59902136
   0.59919182  0.60706074  0.53602151
   0.65619223  0.64707476  0.66256706
   0.54976231  0.64828746  0.69778140
   0.67763630  0.68369953  0.55704485
   0.69167401  0.57758777  0.58806905
   0.59750585  0.56134774  0.64095504
 
 position of ions in cartesian coordinates  (Angst):
  12.48214739 14.72045727 17.60919840
  12.73982914 16.11896449 15.16211028
  17.57945939 16.18048139 12.30820425
  16.49825461 19.77770210 16.15858166
  12.83911582 13.38067292 15.20723150
  14.36281752 18.25560725 15.24575246
  15.03810405 16.02460012 13.64233698
  16.46866102 17.08085126 16.86306031
  13.79755627 17.11286287 17.75930416
  17.00684961 18.04763642 14.17740403
  17.35915850 15.24660132 14.96700418
  14.99579067 14.81791270 16.31301073
 


--------------------------------------------------------------------------------------------------------


 k-point  1 :   0.0000 0.0000 0.0000  plane waves:  306293

 maximum and minimum number of plane-waves per node :     19149    19138

 maximum number of plane-waves:    306293
 maximum index in each direction: 
   IXMAX=   40   IYMAX=   43   IZMAX=   41
   IXMIN=  -40   IYMIN=  -43   IZMIN=  -41


 real space projection operators:
  total allocation   :       2593.27 KBytes
  max/ min on nodes  :        180.98        144.56


 parallel 3D FFT for wavefunctions:
    minimum data exchange during FFTs selected (reduces bandwidth)
 parallel 3D FFT for charge:
    minimum data exchange during FFTs selected (reduces bandwidth)


 total amount of memory used by VASP MPI-rank0    98999. kBytes
=======================================================================

   base      :      30000. kBytes
   nonlr-proj:        514. kBytes
   fftplans  :      23303. kBytes
   grid      :      32901. kBytes
   one-center:         15. kBytes
   wavefun   :      12266. kBytes
 
     INWAV:  cpu time    0.0000: real time    0.0002
 Broyden mixing: mesh for mixing (old mesh)
   NGX = 81   NGY = 87   NGZ = 83
  (NGX  =252   NGY  =280   NGZ  =252)
  gives a total of 584901 points

 initial charge density was supplied:
 charge density of overlapping atoms calculated
 number of electron     132.0000000 magnetization 
 keeping initial charge density in first step


--------------------------------------------------------------------------------------------------------


 Maximum index for non-local projection operator          164
 Maximum index for augmentation-charges          415 (set IRDMAX)


--------------------------------------------------------------------------------------------------------


 First call to EWALD:  gamma=   0.069
 Maximum number of real-space cells 3x 3x 3
 Maximum number of reciprocal cells 3x 3x 3

    FEWALD:  cpu time    0.0014: real time    0.0014


--------------------------------------- Iteration      1(   1)  ---------------------------------------


    POTLOK:  cpu time    0.4339: real time    0.4407
    SETDIJ:  cpu time    0.0056: real time    0.0062
     EDDAV:  cpu time    2.3532: real time    2.4189
       DOS:  cpu time    0.0005: real time    0.0006
    --------------------------------------------
      LOOP:  cpu time    2.7933: real time    2.8664

 eigenvalue-minimisations  :   176
 total energy-change (2. order) : 0.1085301E+04  (-0.1797383E+04)
 number of electron     132.0000000 magnetization 
 augmentation part      132.0000000 magnetization 

 Free energy of the ion-electron system (eV)
  ---------------------------------------------------
  alpha Z        PSCENC =        15.16568811
  Ewald energy   TEWEN  =     17572.95148928
  -Hartree energ DENC   =    -29441.02487353
  -exchange      EXHF   =         0.00000000
  -V(xc)+E(xc)   XCENC  =      -139.01462590
  PAW double counting   =     10448.03032953    -9891.23939838
  entropy T*S    EENTRO =        -0.04172633
  eigenvalues    EBANDS =        71.62227488
  atomic energy  EATOM  =     12448.85194051
  Solvation  Ediel_sol  =         0.00000000
  ---------------------------------------------------
  free energy    TOTEN  =      1085.30109818 eV

  energy without entropy =     1085.34282452  energy(sigma->0) =     1085.32196135


--------------------------------------------------------------------------------------------------------




--------------------------------------- Iteration      1(   2)  ---------------------------------------


     EDDAV:  cpu time    3.9356: real time    4.2087
       DOS:  cpu time    0.0004: real time    0.0004
    --------------------------------------------
      LOOP:  cpu time    3.9359: real time    4.2090

 eigenvalue-minimisations  :   320
 total energy-change (2. order) :-0.4301575E+03  (-0.4050148E+03)
 number of electron     132.0000000 magnetization 
 augmentation part      132.0000000 magnetization 

 Free energy of the ion-electron system (eV)
  ---------------------------------------------------
  alpha Z        PSCENC =        15.16568811
  Ewald energy   TEWEN  =     17572.95148928
  -Hartree energ DENC   =    -29441.02487353
  -exchange      EXHF   =         0.00000000
  -V(xc)+E(xc)   XCENC  =      -139.01462590
  PAW double counting   =     10448.03032953    -9891.23939838
  entropy T*S    EENTRO =        -0.08756393
  eigenvalues    EBANDS =      -358.48941467
  atomic energy  EATOM  =     12448.85194051
  Solvation  Ediel_sol  =         0.00000000
  ---------------------------------------------------
  free energy    TOTEN  =       655.14357104 eV

  energy without entropy =      655.23113496  energy(sigma->0) =      655.18735300


--------------------------------------------------------------------------------------------------------




--------------------------------------- Iteration      1(   3)  ---------------------------------------


     EDDAV:  cpu time    3.2989: real time    3.6379
       DOS:  cpu time    0.0003: real time    0.0003
    --------------------------------------------
      LOOP:  cpu time    3.2992: real time    3.6382

 eigenvalue-minimisations  :   264
 total energy-change (2. order) :-0.4879731E+03  (-0.4537606E+03)
 number of electron     132.0000000 magnetization 
 augmentation part      132.0000000 magnetization 

 Free energy of the ion-electron system (eV)
  ---------------------------------------------------
  alpha Z        PSCENC =        15.16568811
  Ewald energy   TEWEN  =     17572.95148928
  -Hartree energ DENC   =    -29441.02487353
  -exchange      EXHF   =         0.00000000
  -V(xc)+E(xc)   XCENC  =      -139.01462590
  PAW double counting   =     10448.03032953    -9891.23939838
  entropy T*S    EENTRO =        -0.00029086
  eigenvalues    EBANDS =      -846.54981929
  atomic energy  EATOM  =     12448.85194051
  Solvation  Ediel_sol  =         0.00000000
  ---------------------------------------------------
  free energy    TOTEN  =       167.17043948 eV

  energy without entropy =      167.17073034  energy(sigma->0) =      167.17058491


--------------------------------------------------------------------------------------------------------




--------------------------------------- Iteration      1(   4)  ---------------------------------------


     EDDAV:  cpu time    2.6564: real time    2.6706
       DOS:  cpu time    0.0003: real time    0.0003
    --------------------------------------------
      LOOP:  cpu time    2.6567: real time    2.6709

 eigenvalue-minimisations  :   208
 total energy-change (2. order) :-0.1719987E+03  (-0.1580868E+03)
 number of electron     132.0000000 magnetization 
 augmentation part      132.0000000 magnetization 

 Free energy of the ion-electron system (eV)
  ---------------------------------------------------
  alpha Z        PSCENC =        15.16568811
  Ewald energy   TEWEN  =     17572.95148928
  -Hartree energ DENC   =    -29441.02487353
  -exchange      EXHF   =         0.00000000
  -V(xc)+E(xc)   XCENC  =      -139.01462590
  PAW double counting   =     10448.03032953    -9891.23939838
  entropy T*S    EENTRO =        -0.00000000
  eigenvalues    EBANDS =     -1018.54879822
  atomic energy  EATOM  =     12448.85194051
  Solvation  Ediel_sol  =         0.00000000
  ---------------------------------------------------
  free energy    TOTEN  =        -4.82824859 eV

  energy without entropy =       -4.82824859  energy(sigma->0) =       -4.82824859


--------------------------------------------------------------------------------------------------------




--------------------------------------- Iteration      1(   5)  ---------------------------------------


     EDDAV:  cpu time    2.4212: real time    2.6168
       DOS:  cpu time    0.0003: real time    0.0003
    CHARGE:  cpu time    0.1909: real time    0.1975
    MIXING:  cpu time    0.0143: real time    0.0190
    --------------------------------------------
      LOOP:  cpu time    2.6269: real time    2.8336

 eigenvalue-minimisations  :   168
 total energy-change (2. order) :-0.1977695E+02  (-0.1950185E+02)
 number of electron     132.0000011 magnetization 
 augmentation part       62.8397625 magnetization 

 Broyden mixing:
  rms(total) = 0.57915E+00    rms(broyden)= 0.57911E+00
  rms(prec ) = 0.64146E+00
  weight for this iteration     100.00

 Free energy of the ion-electron system (eV)
  ---------------------------------------------------
  alpha Z        PSCENC =        15.16568811
  Ewald energy   TEWEN  =     17572.95148928
  -Hartree energ DENC   =    -29441.02487353
  -exchange      EXHF   =         0.00000000
  -V(xc)+E(xc)   XCENC  =      -139.01462590
  PAW double counting   =     10448.03032953    -9891.23939838
  entropy T*S    EENTRO =        -0.00000000
  eigenvalues    EBANDS =     -1038.32574680
  atomic energy  EATOM  =     12448.85194051
  Solvation  Ediel_sol  =         0.00000000
  ---------------------------------------------------
  free energy    TOTEN  =       -24.60519716 eV

  energy without entropy =      -24.60519716  energy(sigma->0) =      -24.60519716


--------------------------------------------------------------------------------------------------------




--------------------------------------- Iteration      1(   6)  ---------------------------------------


    POTLOK:  cpu time    0.4176: real time    0.4184
    SETDIJ:  cpu time    0.0018: real time    0.0018
    EDDIAG:  cpu time    0.4454: real time    0.4506
  RMM-DIIS:  cpu time    1.5829: real time    1.6062
    ORTHCH:  cpu time    0.0336: real time    0.0336
       DOS:  cpu time    0.0005: real time    0.0005
    CHARGE:  cpu time    0.1854: real time    0.2979
    MIXING:  cpu time    0.0130: real time    0.0154
    --------------------------------------------
      LOOP:  cpu time    2.6801: real time    2.8245

 eigenvalue-minimisations  :   160
 total energy-change (2. order) : 0.1062215E+01  (-0.8453491E+00)
 number of electron     132.0000011 magnetization 
 augmentation part       63.5097942 magnetization 

 Broyden mixing:
  rms(total) = 0.19338E+00    rms(broyden)= 0.19336E+00
  rms(prec ) = 0.22048E+00
  weight for this iteration     100.00

 eigenvalues of (default mixing * dielectric matrix)
  average eigenvalue GAMMA=   1.3590
  1.3590

 Free energy of the ion-electron system (eV)
  ---------------------------------------------------
  alpha Z        PSCENC =        15.16568811
  Ewald energy   TEWEN  =     17572.95148928
  -Hartree energ DENC   =    -29415.42966068
  -exchange      EXHF   =         0.00000000
  -V(xc)+E(xc)   XCENC  =      -141.02595880
  PAW double counting   =     10404.33105157    -9854.24325749
  entropy T*S    EENTRO =        -0.00000000
  eigenvalues    EBANDS =     -1054.14427486
  atomic energy  EATOM  =     12448.85194051
  Solvation  Ediel_sol  =         0.00000000
  ---------------------------------------------------
  free energy    TOTEN  =       -23.54298234 eV

  energy without entropy =      -23.54298234  energy(sigma->0) =      -23.54298234


--------------------------------------------------------------------------------------------------------




--------------------------------------- Iteration      1(   7)  ---------------------------------------


    POTLOK:  cpu time    0.4167: real time    0.4181
    SETDIJ:  cpu time    0.0016: real time    0.0016
    EDDIAG:  cpu time    0.5964: real time    0.6751
  RMM-DIIS:  cpu time    1.5730: real time    1.5771
    ORTHCH:  cpu time    0.0328: real time    0.0336
       DOS:  cpu time    0.0008: real time    0.0009
    CHARGE:  cpu time    0.1911: real time    0.1914
    MIXING:  cpu time    0.0143: real time    0.0144
    --------------------------------------------
      LOOP:  cpu time    2.8267: real time    2.9122

 eigenvalue-minimisations  :   160
 total energy-change (2. order) : 0.1559965E+00  (-0.1083760E+00)
 number of electron     132.0000012 magnetization 
 augmentation part       63.7413299 magnetization 

 Broyden mixing:
  rms(total) = 0.73877E-01    rms(broyden)= 0.73867E-01
  rms(prec ) = 0.82060E-01
  weight for this iteration     100.00

 eigenvalues of (default mixing * dielectric matrix)
  average eigenvalue GAMMA=   1.7167
  1.3932  2.0402

 Free energy of the ion-electron system (eV)
  ---------------------------------------------------
  alpha Z        PSCENC =        15.16568811
  Ewald energy   TEWEN  =     17572.95148928
  -Hartree energ DENC   =    -29420.23963633
  -exchange      EXHF   =         0.00000000
  -V(xc)+E(xc)   XCENC  =      -141.61446878
  PAW double counting   =     10424.14956664    -9879.91890404
  entropy T*S    EENTRO =        -0.00000000
  eigenvalues    EBANDS =     -1042.73266128
  atomic energy  EATOM  =     12448.85194051
  Solvation  Ediel_sol  =         0.00000000
  ---------------------------------------------------
  free energy    TOTEN  =       -23.38698588 eV

  energy without entropy =      -23.38698588  energy(sigma->0) =      -23.38698588


--------------------------------------------------------------------------------------------------------




--------------------------------------- Iteration      1(   8)  ---------------------------------------


    POTLOK:  cpu time    0.4201: real time    0.4209
    SETDIJ:  cpu time    0.0025: real time    0.0025
    EDDIAG:  cpu time    0.4467: real time    0.4648
  RMM-DIIS:  cpu time    1.7082: real time    1.7197
    ORTHCH:  cpu time    0.0330: real time    0.0331
       DOS:  cpu time    0.0005: real time    0.0005
    CHARGE:  cpu time    0.1981: real time    0.1985
    MIXING:  cpu time    0.0140: real time    0.0140
    --------------------------------------------
      LOOP:  cpu time    2.8231: real time    2.8539

 eigenvalue-minimisations  :   160
 total energy-change (2. order) : 0.2230491E-01  (-0.9852943E-02)
 number of electron     132.0000011 magnetization 
 augmentation part       63.6561561 magnetization 

 Broyden mixing:
  rms(total) = 0.31136E-01    rms(broyden)= 0.31135E-01
  rms(prec ) = 0.36224E-01
  weight for this iteration     100.00

 eigenvalues of (default mixing * dielectric matrix)
  average eigenvalue GAMMA=   1.6721
  2.4151  1.3006  1.3006

 Free energy of the ion-electron system (eV)
  ---------------------------------------------------
  alpha Z        PSCENC =        15.16568811
  Ewald energy   TEWEN  =     17572.95148928
  -Hartree energ DENC   =    -29435.53073590
  -exchange      EXHF   =         0.00000000
  -V(xc)+E(xc)   XCENC  =      -141.42132406
  PAW double counting   =     10459.01620128    -9918.54257668
  entropy T*S    EENTRO =        -0.00000000
  eigenvalues    EBANDS =     -1023.85536353
  atomic energy  EATOM  =     12448.85194051
  Solvation  Ediel_sol  =         0.00000000
  ---------------------------------------------------
  free energy    TOTEN  =       -23.36468097 eV

  energy without entropy =      -23.36468097  energy(sigma->0) =      -23.36468097


--------------------------------------------------------------------------------------------------------




--------------------------------------- Iteration      1(   9)  ---------------------------------------


    POTLOK:  cpu time    0.5851: real time    0.6309
    SETDIJ:  cpu time    0.0025: real time    0.0025
    EDDIAG:  cpu time    0.4449: real time    0.4459
  RMM-DIIS:  cpu time    1.6357: real time    1.6400
    ORTHCH:  cpu time    0.0341: real time    0.0342
       DOS:  cpu time    0.0005: real time    0.0005
    CHARGE:  cpu time    0.1922: real time    0.1924
    MIXING:  cpu time    0.0136: real time    0.0137
    --------------------------------------------
      LOOP:  cpu time    2.9087: real time    2.9601

 eigenvalue-minimisations  :   162
 total energy-change (2. order) : 0.3307192E-02  (-0.1608444E-02)
 number of electron     132.0000011 magnetization 
 augmentation part       63.7020265 magnetization 

 Broyden mixing:
  rms(total) = 0.13084E-01    rms(broyden)= 0.13083E-01
  rms(prec ) = 0.17662E-01
  weight for this iteration     100.00

 eigenvalues of (default mixing * dielectric matrix)
  average eigenvalue GAMMA=   1.6232
  2.5271  1.7657  0.9540  1.2459

 Free energy of the ion-electron system (eV)
  ---------------------------------------------------
  alpha Z        PSCENC =        15.16568811
  Ewald energy   TEWEN  =     17572.95148928
  -Hartree energ DENC   =    -29437.85696104
  -exchange      EXHF   =         0.00000000
  -V(xc)+E(xc)   XCENC  =      -141.49483703
  PAW double counting   =     10456.59879471    -9916.87016354
  entropy T*S    EENTRO =        -0.00000000
  eigenvalues    EBANDS =     -1020.70732479
  atomic energy  EATOM  =     12448.85194051
  Solvation  Ediel_sol  =         0.00000000
  ---------------------------------------------------
  free energy    TOTEN  =       -23.36137378 eV

  energy without entropy =      -23.36137378  energy(sigma->0) =      -23.36137378


--------------------------------------------------------------------------------------------------------




--------------------------------------- Iteration      1(  10)  ---------------------------------------


    POTLOK:  cpu time    0.3966: real time    0.4248
    SETDIJ:  cpu time    0.0024: real time    0.0024
    EDDIAG:  cpu time    0.4451: real time    0.4459
  RMM-DIIS:  cpu time    1.7188: real time    1.7280
    ORTHCH:  cpu time    0.0916: real time    0.0986
       DOS:  cpu time    0.0003: real time    0.0003
    CHARGE:  cpu time    0.2448: real time    0.3015
    MIXING:  cpu time    0.0148: real time    0.0149
    --------------------------------------------
      LOOP:  cpu time    2.9143: real time    3.0163

 eigenvalue-minimisations  :   160
 total energy-change (2. order) : 0.1211347E-03  (-0.2533508E-03)
 number of electron     132.0000011 magnetization 
 augmentation part       63.6949849 magnetization 

 Broyden mixing:
  rms(total) = 0.64087E-02    rms(broyden)= 0.64086E-02
  rms(prec ) = 0.10815E-01
  weight for this iteration     100.00

 eigenvalues of (default mixing * dielectric matrix)
  average eigenvalue GAMMA=   1.8399
  2.7796  2.7796  0.9543  1.3429  1.3429

 Free energy of the ion-electron system (eV)
  ---------------------------------------------------
  alpha Z        PSCENC =        15.16568811
  Ewald energy   TEWEN  =     17572.95148928
  -Hartree energ DENC   =    -29442.33962267
  -exchange      EXHF   =         0.00000000
  -V(xc)+E(xc)   XCENC  =      -141.43114728
  PAW double counting   =     10456.34974815    -9916.66334968
  entropy T*S    EENTRO =        -0.00000000
  eigenvalues    EBANDS =     -1016.24599907
  atomic energy  EATOM  =     12448.85194051
  Solvation  Ediel_sol  =         0.00000000
  ---------------------------------------------------
  free energy    TOTEN  =       -23.36125265 eV

  energy without entropy =      -23.36125265  energy(sigma->0) =      -23.36125265


--------------------------------------------------------------------------------------------------------




--------------------------------------- Iteration      1(  11)  ---------------------------------------


    POTLOK:  cpu time    0.4166: real time    0.4179
    SETDIJ:  cpu time    0.0023: real time    0.0023
    EDDIAG:  cpu time    0.4412: real time    0.4420
  RMM-DIIS:  cpu time    1.5805: real time    1.7415
    ORTHCH:  cpu time    0.0331: real time    0.0332
       DOS:  cpu time    0.0005: real time    0.0005
    CHARGE:  cpu time    0.1878: real time    0.1882
    MIXING:  cpu time    0.0150: real time    0.0150
    --------------------------------------------
      LOOP:  cpu time    2.6769: real time    2.8406

 eigenvalue-minimisations  :   160
 total energy-change (2. order) :-0.2224811E-02  (-0.2850052E-03)
 number of electron     132.0000011 magnetization 
 augmentation part       63.6783083 magnetization 

 Broyden mixing:
  rms(total) = 0.66510E-02    rms(broyden)= 0.66508E-02
  rms(prec ) = 0.81043E-02
  weight for this iteration     100.00

 eigenvalues of (default mixing * dielectric matrix)
  average eigenvalue GAMMA=   1.9025
  3.7642  2.6401  1.6277  0.9519  1.2155  1.2155

 Free energy of the ion-electron system (eV)
  ---------------------------------------------------
  alpha Z        PSCENC =        15.16568811
  Ewald energy   TEWEN  =     17572.95148928
  -Hartree energ DENC   =    -29450.37867966
  -exchange      EXHF   =         0.00000000
  -V(xc)+E(xc)   XCENC  =      -141.33701900
  PAW double counting   =     10454.44665585    -9914.56236158
  entropy T*S    EENTRO =        -0.00000000
  eigenvalues    EBANDS =     -1008.50119097
  atomic energy  EATOM  =     12448.85194051
  Solvation  Ediel_sol  =         0.00000000
  ---------------------------------------------------
  free energy    TOTEN  =       -23.36347746 eV

  energy without entropy =      -23.36347746  energy(sigma->0) =      -23.36347746


--------------------------------------------------------------------------------------------------------




--------------------------------------- Iteration      1(  12)  ---------------------------------------


    POTLOK:  cpu time    0.4185: real time    0.4193
    SETDIJ:  cpu time    0.0023: real time    0.0023
    EDDIAG:  cpu time    0.5864: real time    0.5928
  RMM-DIIS:  cpu time    1.5838: real time    1.7885
    ORTHCH:  cpu time    0.0332: real time    0.0332
       DOS:  cpu time    0.0005: real time    0.0005
    CHARGE:  cpu time    0.1878: real time    0.1880
    MIXING:  cpu time    0.0159: real time    0.0159
    --------------------------------------------
      LOOP:  cpu time    2.8283: real time    3.0405

 eigenvalue-minimisations  :   160
 total energy-change (2. order) :-0.2142017E-02  (-0.2310077E-03)
 number of electron     132.0000011 magnetization 
 augmentation part       63.6989508 magnetization 

 Broyden mixing:
  rms(total) = 0.48126E-02    rms(broyden)= 0.48122E-02
  rms(prec ) = 0.55952E-02
  weight for this iteration     100.00

 eigenvalues of (default mixing * dielectric matrix)
  average eigenvalue GAMMA=   1.9456
  4.6480  2.5968  1.8739  1.2989  1.2989  0.9513  0.9513

 Free energy of the ion-electron system (eV)
  ---------------------------------------------------
  alpha Z        PSCENC =        15.16568811
  Ewald energy   TEWEN  =     17572.95148928
  -Hartree energ DENC   =    -29452.22889898
  -exchange      EXHF   =         0.00000000
  -V(xc)+E(xc)   XCENC  =      -141.36118536
  PAW double counting   =     10450.62604619    -9910.67615480
  entropy T*S    EENTRO =        -0.00000000
  eigenvalues    EBANDS =     -1006.69454442
  atomic energy  EATOM  =     12448.85194051
  Solvation  Ediel_sol  =         0.00000000
  ---------------------------------------------------
  free energy    TOTEN  =       -23.36561947 eV

  energy without entropy =      -23.36561947  energy(sigma->0) =      -23.36561947


--------------------------------------------------------------------------------------------------------




--------------------------------------- Iteration      1(  13)  ---------------------------------------


    POTLOK:  cpu time    0.4171: real time    0.4205
    SETDIJ:  cpu time    0.0022: real time    0.0022
    EDDIAG:  cpu time    0.4436: real time    0.4447
  RMM-DIIS:  cpu time    1.6118: real time    1.6213
    ORTHCH:  cpu time    0.0334: real time    0.0335
       DOS:  cpu time    0.0005: real time    0.0005
    CHARGE:  cpu time    0.1878: real time    0.1885
    MIXING:  cpu time    0.0165: real time    0.0165
    --------------------------------------------
      LOOP:  cpu time    2.7130: real time    2.7278

 eigenvalue-minimisations  :   160
 total energy-change (2. order) :-0.1769962E-02  (-0.5228355E-04)
 number of electron     132.0000011 magnetization 
 augmentation part       63.6901099 magnetization 

 Broyden mixing:
  rms(total) = 0.12499E-02    rms(broyden)= 0.12497E-02
  rms(prec ) = 0.19960E-02
  weight for this iteration     100.00

 eigenvalues of (default mixing * dielectric matrix)
  average eigenvalue GAMMA=   2.0687
  5.3452  3.0355  2.0859  1.7860  1.1968  1.1968  0.9515  0.9515

 Free energy of the ion-electron system (eV)
  ---------------------------------------------------
  alpha Z        PSCENC =        15.16568811
  Ewald energy   TEWEN  =     17572.95148928
  -Hartree energ DENC   =    -29454.18301022
  -exchange      EXHF   =         0.00000000
  -V(xc)+E(xc)   XCENC  =      -141.33640380
  PAW double counting   =     10451.31348185    -9911.40853625
  entropy T*S    EENTRO =        -0.00000000
  eigenvalues    EBANDS =     -1004.72203892
  atomic energy  EATOM  =     12448.85194051
  Solvation  Ediel_sol  =         0.00000000
  ---------------------------------------------------
  free energy    TOTEN  =       -23.36738943 eV

  energy without entropy =      -23.36738943  energy(sigma->0) =      -23.36738943


--------------------------------------------------------------------------------------------------------




--------------------------------------- Iteration      1(  14)  ---------------------------------------


    POTLOK:  cpu time    0.4374: real time    0.5111
    SETDIJ:  cpu time    0.0021: real time    0.0022
    EDDIAG:  cpu time    0.4701: real time    0.4712
  RMM-DIIS:  cpu time    1.5990: real time    1.7128
    ORTHCH:  cpu time    0.0331: real time    0.0332
       DOS:  cpu time    0.0005: real time    0.0005
    CHARGE:  cpu time    0.1918: real time    0.1923
    MIXING:  cpu time    0.0167: real time    0.0168
    --------------------------------------------
      LOOP:  cpu time    2.7508: real time    2.9401

 eigenvalue-minimisations  :   160
 total energy-change (2. order) :-0.1923358E-02  (-0.1815496E-04)
 number of electron     132.0000011 magnetization 
 augmentation part       63.6871144 magnetization 

 Broyden mixing:
  rms(total) = 0.12838E-02    rms(broyden)= 0.12837E-02
  rms(prec ) = 0.15831E-02
  weight for this iteration     100.00

 eigenvalues of (default mixing * dielectric matrix)
  average eigenvalue GAMMA=   2.2074
  6.5536  3.3560  2.5569  1.6891  1.6215  1.0907  1.0907  0.9541  0.9541

 Free energy of the ion-electron system (eV)
  ---------------------------------------------------
  alpha Z        PSCENC =        15.16568811
  Ewald energy   TEWEN  =     17572.95148928
  -Hartree energ DENC   =    -29455.10316322
  -exchange      EXHF   =         0.00000000
  -V(xc)+E(xc)   XCENC  =      -141.33102671
  PAW double counting   =     10451.54889817    -9911.65229592
  entropy T*S    EENTRO =        -0.00000000
  eigenvalues    EBANDS =     -1003.80084302
  atomic energy  EATOM  =     12448.85194051
  Solvation  Ediel_sol  =         0.00000000
  ---------------------------------------------------
  free energy    TOTEN  =       -23.36931279 eV

  energy without entropy =      -23.36931279  energy(sigma->0) =      -23.36931279


--------------------------------------------------------------------------------------------------------




--------------------------------------- Iteration      1(  15)  ---------------------------------------


    POTLOK:  cpu time    0.4219: real time    0.4227
    SETDIJ:  cpu time    0.0018: real time    0.0018
    EDDIAG:  cpu time    0.4589: real time    0.4644
  RMM-DIIS:  cpu time    1.2824: real time    1.2855
    ORTHCH:  cpu time    0.0336: real time    0.0337
       DOS:  cpu time    0.0005: real time    0.0005
    CHARGE:  cpu time    0.1796: real time    0.2815
    MIXING:  cpu time    0.0163: real time    0.0739
    --------------------------------------------
      LOOP:  cpu time    2.3951: real time    2.5640

 eigenvalue-minimisations  :   127
 total energy-change (2. order) :-0.1060835E-02  (-0.1007891E-04)
 number of electron     132.0000011 magnetization 
 augmentation part       63.6900095 magnetization 

 Broyden mixing:
  rms(total) = 0.53577E-03    rms(broyden)= 0.53571E-03
  rms(prec ) = 0.69807E-03
  weight for this iteration     100.00

 eigenvalues of (default mixing * dielectric matrix)
  average eigenvalue GAMMA=   2.2820
  7.1966  3.8586  2.6664  1.8411  1.7485  1.4795  1.0653  1.0653  0.9494  0.9494

 Free energy of the ion-electron system (eV)
  ---------------------------------------------------
  alpha Z        PSCENC =        15.16568811
  Ewald energy   TEWEN  =     17572.95148928
  -Hartree energ DENC   =    -29455.38858581
  -exchange      EXHF   =         0.00000000
  -V(xc)+E(xc)   XCENC  =      -141.33827427
  PAW double counting   =     10451.45959723    -9911.58167698
  entropy T*S    EENTRO =        -0.00000000
  eigenvalues    EBANDS =     -1003.49055170
  atomic energy  EATOM  =     12448.85194051
  Solvation  Ediel_sol  =         0.00000000
  ---------------------------------------------------
  free energy    TOTEN  =       -23.37037363 eV

  energy without entropy =      -23.37037363  energy(sigma->0) =      -23.37037363


--------------------------------------------------------------------------------------------------------




--------------------------------------- Iteration      1(  16)  ---------------------------------------


    POTLOK:  cpu time    0.4296: real time    0.4304
    SETDIJ:  cpu time    0.0254: real time    0.0254
    EDDIAG:  cpu time    0.4394: real time    0.4401
  RMM-DIIS:  cpu time    1.0926: real time    1.2086
    ORTHCH:  cpu time    0.0391: real time    0.0391
       DOS:  cpu time    0.0005: real time    0.0005
    CHARGE:  cpu time    0.1862: real time    0.1868
    MIXING:  cpu time    0.0190: real time    0.0190
    --------------------------------------------
      LOOP:  cpu time    2.2317: real time    2.3498

 eigenvalue-minimisations  :    99
 total energy-change (2. order) :-0.6140937E-03  (-0.3595765E-05)
 number of electron     132.0000011 magnetization 
 augmentation part       63.6886043 magnetization 

 Broyden mixing:
  rms(total) = 0.35323E-03    rms(broyden)= 0.35319E-03
  rms(prec ) = 0.43055E-03
  weight for this iteration     100.00

 eigenvalues of (default mixing * dielectric matrix)
  average eigenvalue GAMMA=   2.3405
  7.4233  4.6479  2.6222  2.6222  1.6068  1.6068  1.2489  1.0253  1.0253  0.9273
  0.9896

 Free energy of the ion-electron system (eV)
  ---------------------------------------------------
  alpha Z        PSCENC =        15.16568811
  Ewald energy   TEWEN  =     17572.95148928
  -Hartree energ DENC   =    -29455.57528330
  -exchange      EXHF   =         0.00000000
  -V(xc)+E(xc)   XCENC  =      -141.33638284
  PAW double counting   =     10451.63650161    -9911.75651688
  entropy T*S    EENTRO =        -0.00000000
  eigenvalues    EBANDS =     -1003.30842422
  atomic energy  EATOM  =     12448.85194051
  Solvation  Ediel_sol  =         0.00000000
  ---------------------------------------------------
  free energy    TOTEN  =       -23.37098772 eV

  energy without entropy =      -23.37098772  energy(sigma->0) =      -23.37098772


--------------------------------------------------------------------------------------------------------




--------------------------------------- Iteration      1(  17)  ---------------------------------------


    POTLOK:  cpu time    0.4238: real time    0.4248
    SETDIJ:  cpu time    0.0020: real time    0.0020
    EDDIAG:  cpu time    0.4327: real time    0.4598
  RMM-DIIS:  cpu time    1.0517: real time    1.0541
    ORTHCH:  cpu time    0.0332: real time    0.0333
       DOS:  cpu time    0.0005: real time    0.0005
    CHARGE:  cpu time    0.1891: real time    0.1898
    MIXING:  cpu time    0.0209: real time    0.0210
    --------------------------------------------
      LOOP:  cpu time    2.1538: real time    2.1852

 eigenvalue-minimisations  :    99
 total energy-change (2. order) :-0.3181723E-03  (-0.2334597E-05)
 number of electron     132.0000011 magnetization 
 augmentation part       63.6899301 magnetization 

 Broyden mixing:
  rms(total) = 0.28231E-03    rms(broyden)= 0.28227E-03
  rms(prec ) = 0.31630E-03
  weight for this iteration     100.00

 eigenvalues of (default mixing * dielectric matrix)
  average eigenvalue GAMMA=   2.3208
  8.0072  4.8701  2.9789  2.5648  1.6508  1.5850  1.2939  1.0752  1.0752  0.9368
  0.9061  0.9061

 Free energy of the ion-electron system (eV)
  ---------------------------------------------------
  alpha Z        PSCENC =        15.16568811
  Ewald energy   TEWEN  =     17572.95148928
  -Hartree energ DENC   =    -29455.53040974
  -exchange      EXHF   =         0.00000000
  -V(xc)+E(xc)   XCENC  =      -141.33841207
  PAW double counting   =     10451.46522169    -9911.56973667
  entropy T*S    EENTRO =        -0.00000000
  eigenvalues    EBANDS =     -1003.36708702
  atomic energy  EATOM  =     12448.85194051
  Solvation  Ediel_sol  =         0.00000000
  ---------------------------------------------------
  free energy    TOTEN  =       -23.37130589 eV

  energy without entropy =      -23.37130589  energy(sigma->0) =      -23.37130589


--------------------------------------------------------------------------------------------------------




--------------------------------------- Iteration      1(  18)  ---------------------------------------


    POTLOK:  cpu time    0.4243: real time    0.4253
    SETDIJ:  cpu time    0.0027: real time    0.0028
    EDDIAG:  cpu time    0.4653: real time    0.6347
  RMM-DIIS:  cpu time    1.0936: real time    1.1381
    ORTHCH:  cpu time    0.0694: real time    0.1461
       DOS:  cpu time    0.0005: real time    0.0005
    CHARGE:  cpu time    0.1874: real time    0.1879
    MIXING:  cpu time    0.0221: real time    0.0222
    --------------------------------------------
      LOOP:  cpu time    2.2653: real time    2.5575

 eigenvalue-minimisations  :    97
 total energy-change (2. order) :-0.1052160E-03  (-0.5800005E-06)
 number of electron     132.0000011 magnetization 
 augmentation part       63.6893185 magnetization 

 Broyden mixing:
  rms(total) = 0.75673E-04    rms(broyden)= 0.75647E-04
  rms(prec ) = 0.11156E-03
  weight for this iteration     100.00

 eigenvalues of (default mixing * dielectric matrix)
  average eigenvalue GAMMA=   2.4053
  8.0569  5.7501  3.2313  2.7776  2.2831  1.6324  1.6324  1.0359  1.0359  1.0444
  1.0444  0.8936  0.8507

 Free energy of the ion-electron system (eV)
  ---------------------------------------------------
  alpha Z        PSCENC =        15.16568811
  Ewald energy   TEWEN  =     17572.95148928
  -Hartree energ DENC   =    -29455.57626957
  -exchange      EXHF   =         0.00000000
  -V(xc)+E(xc)   XCENC  =      -141.33763746
  PAW double counting   =     10451.51222223    -9911.61960191
  entropy T*S    EENTRO =        -0.00000000
  eigenvalues    EBANDS =     -1003.31924231
  atomic energy  EATOM  =     12448.85194051
  Solvation  Ediel_sol  =         0.00000000
  ---------------------------------------------------
  free energy    TOTEN  =       -23.37141111 eV

  energy without entropy =      -23.37141111  energy(sigma->0) =      -23.37141111


--------------------------------------------------------------------------------------------------------




--------------------------------------- Iteration      1(  19)  ---------------------------------------


    POTLOK:  cpu time    0.4241: real time    0.4251
    SETDIJ:  cpu time    0.0022: real time    0.0022
    EDDIAG:  cpu time    0.4593: real time    0.4733
  RMM-DIIS:  cpu time    0.7786: real time    1.2481
    ORTHCH:  cpu time    0.0365: real time    0.0366
       DOS:  cpu time    0.0005: real time    0.0005
    CHARGE:  cpu time    0.1875: real time    0.1880
    MIXING:  cpu time    0.0225: real time    0.0225
    --------------------------------------------
      LOOP:  cpu time    1.9112: real time    2.3962

 eigenvalue-minimisations  :    49
 total energy-change (2. order) :-0.1035622E-03  (-0.5310113E-06)
 number of electron     132.0000011 magnetization 
 augmentation part       63.6893577 magnetization 

 Broyden mixing:
  rms(total) = 0.35337E-04    rms(broyden)= 0.35334E-04
  rms(prec ) = 0.55731E-04
  weight for this iteration     100.00

 eigenvalues of (default mixing * dielectric matrix)
  average eigenvalue GAMMA=   2.3980
  8.3447  5.9555  3.5965  2.8296  2.4032  1.7468  1.4291  1.4291  1.0838  1.0838
  0.9813  0.9813  0.9359  0.7712

 Free energy of the ion-electron system (eV)
  ---------------------------------------------------
  alpha Z        PSCENC =        15.16568811
  Ewald energy   TEWEN  =     17572.95148928
  -Hartree energ DENC   =    -29455.57896381
  -exchange      EXHF   =         0.00000000
  -V(xc)+E(xc)   XCENC  =      -141.33785687
  PAW double counting   =     10451.50189746    -9911.61017409
  entropy T*S    EENTRO =        -0.00000000
  eigenvalues    EBANDS =     -1003.31553527
  atomic energy  EATOM  =     12448.85194051
  Solvation  Ediel_sol  =         0.00000000
  ---------------------------------------------------
  free energy    TOTEN  =       -23.37151467 eV

  energy without entropy =      -23.37151467  energy(sigma->0) =      -23.37151467


--------------------------------------------------------------------------------------------------------




--------------------------------------- Iteration      1(  20)  ---------------------------------------


    POTLOK:  cpu time    0.4205: real time    0.4213
    SETDIJ:  cpu time    0.0025: real time    0.0025
    EDDIAG:  cpu time    0.4489: real time    0.5592
  RMM-DIIS:  cpu time    0.7849: real time    0.7866
    ORTHCH:  cpu time    0.0362: real time    0.0363
       DOS:  cpu time    0.0005: real time    0.0005
    CHARGE:  cpu time    0.2006: real time    0.2008
    MIXING:  cpu time    0.0245: real time    0.0245
    --------------------------------------------
      LOOP:  cpu time    1.9185: real time    2.0316

 eigenvalue-minimisations  :    47
 total energy-change (2. order) :-0.2812117E-04  (-0.1178450E-06)
 number of electron     132.0000011 magnetization 
 augmentation part       63.6894161 magnetization 

 Broyden mixing:
  rms(total) = 0.31090E-04    rms(broyden)= 0.31087E-04
  rms(prec ) = 0.41023E-04
  weight for this iteration     100.00

 eigenvalues of (default mixing * dielectric matrix)
  average eigenvalue GAMMA=   2.3920
  8.3430  6.2758  3.7791  2.7101  2.7101  2.1063  1.6047  1.6047  1.0337  1.0337
  1.0463  1.0463  0.9059  0.8403  0.8403

 Free energy of the ion-electron system (eV)
  ---------------------------------------------------
  alpha Z        PSCENC =        15.16568811
  Ewald energy   TEWEN  =     17572.95148928
  -Hartree energ DENC   =    -29455.56919699
  -exchange      EXHF   =         0.00000000
  -V(xc)+E(xc)   XCENC  =      -141.33801835
  PAW double counting   =     10451.49504666    -9911.60346371
  entropy T*S    EENTRO =        -0.00000000
  eigenvalues    EBANDS =     -1003.32502830
  atomic energy  EATOM  =     12448.85194051
  Solvation  Ediel_sol  =         0.00000000
  ---------------------------------------------------
  free energy    TOTEN  =       -23.37154279 eV

  energy without entropy =      -23.37154279  energy(sigma->0) =      -23.37154279


--------------------------------------------------------------------------------------------------------




--------------------------------------- Iteration      1(  21)  ---------------------------------------


    POTLOK:  cpu time    0.5419: real time    0.6429
    SETDIJ:  cpu time    0.0021: real time    0.0021
    EDDIAG:  cpu time    0.4429: real time    0.4437
  RMM-DIIS:  cpu time    0.7148: real time    0.7206
    ORTHCH:  cpu time    0.0360: real time    0.0361
       DOS:  cpu time    0.0005: real time    0.0005
    CHARGE:  cpu time    0.1866: real time    0.1871
    MIXING:  cpu time    0.0263: real time    0.0263
    --------------------------------------------
      LOOP:  cpu time    1.9513: real time    2.0593

 eigenvalue-minimisations  :    32
 total energy-change (2. order) :-0.1419631E-04  (-0.3819826E-07)
 number of electron     132.0000011 magnetization 
 augmentation part       63.6894190 magnetization 

 Broyden mixing:
  rms(total) = 0.18142E-04    rms(broyden)= 0.18142E-04
  rms(prec ) = 0.24897E-04
  weight for this iteration     100.00

 eigenvalues of (default mixing * dielectric matrix)
  average eigenvalue GAMMA=   2.4145
  8.3198  6.8087  4.1993  3.0662  2.7255  2.1608  1.7365  1.5069  1.1765  1.1765
  1.0317  1.0317  0.9813  0.9813  0.9228  0.8063

 Free energy of the ion-electron system (eV)
  ---------------------------------------------------
  alpha Z        PSCENC =        15.16568811
  Ewald energy   TEWEN  =     17572.95148928
  -Hartree energ DENC   =    -29455.56867621
  -exchange      EXHF   =         0.00000000
  -V(xc)+E(xc)   XCENC  =      -141.33804847
  PAW double counting   =     10451.50015800    -9911.60933942
  entropy T*S    EENTRO =        -0.00000000
  eigenvalues    EBANDS =     -1003.32476879
  atomic energy  EATOM  =     12448.85194051
  Solvation  Ediel_sol  =         0.00000000
  ---------------------------------------------------
  free energy    TOTEN  =       -23.37155699 eV

  energy without entropy =      -23.37155699  energy(sigma->0) =      -23.37155699


--------------------------------------------------------------------------------------------------------




--------------------------------------- Iteration      1(  22)  ---------------------------------------


    POTLOK:  cpu time    0.4233: real time    0.4250
    SETDIJ:  cpu time    0.0022: real time    0.0023
    EDDIAG:  cpu time    0.4410: real time    0.4424
  RMM-DIIS:  cpu time    0.6867: real time    0.6882
    ORTHCH:  cpu time    0.0356: real time    0.0356
       DOS:  cpu time    0.0003: real time    0.0003
    --------------------------------------------
      LOOP:  cpu time    1.5891: real time    1.5937

 eigenvalue-minimisations  :    31
 total energy-change (2. order) :-0.5672789E-05  (-0.4210531E-08)
 number of electron     132.0000011 magnetization 
 augmentation part       63.6894190 magnetization 

 Free energy of the ion-electron system (eV)
  ---------------------------------------------------
  alpha Z        PSCENC =        15.16568811
  Ewald energy   TEWEN  =     17572.95148928
  -Hartree energ DENC   =    -29455.57180023
  -exchange      EXHF   =         0.00000000
  -V(xc)+E(xc)   XCENC  =      -141.33801324
  PAW double counting   =     10451.50510199    -9911.61453968
  entropy T*S    EENTRO =        -0.00000000
  eigenvalues    EBANDS =     -1003.32142941
  atomic energy  EATOM  =     12448.85194051
  Solvation  Ediel_sol  =         0.00000000
  ---------------------------------------------------
  free energy    TOTEN  =       -23.37156266 eV

  energy without entropy =      -23.37156266  energy(sigma->0) =      -23.37156266


--------------------------------------------------------------------------------------------------------




 average (electrostatic) potential at core
  the test charge radii are     1.1249
  (the norm of the test charge is              1.0000)
       1 -47.9870       2 -48.2201       3 -48.0692       4 -48.1931       5 -47.9330
       6 -48.2011       7 -48.1383       8 -48.2169       9 -47.9465      10 -48.2595
      11 -48.2291      12 -48.1763
 
 
 
 E-fermi :  -4.1539     XC(G=0):  -0.3389     alpha+bet : -0.1036


 k-point     1 :       0.0000    0.0000    0.0000
  band No.  band energies     occupation 
      1      -9.3451      2.00000
      2      -9.2544      2.00000
      3      -9.1980      2.00000
      4      -9.1268      2.00000
      5      -9.0483      2.00000
      6      -8.9483      2.00000
      7      -8.8924      2.00000
      8      -8.8393      2.00000
      9      -8.7692      2.00000
     10      -8.7267      2.00000
     11      -8.6901      2.00000
     12      -8.6333      2.00000
     13      -8.6209      2.00000
     14      -8.5475      2.00000
     15      -8.4923      2.00000
     16      -8.4135      2.00000
     17      -8.3720      2.00000
     18      -8.3117      2.00000
     19      -8.2365      2.00000
     20      -8.2158      2.00000
     21      -8.1895      2.00000
     22      -8.1168      2.00000
     23      -8.0931      2.00000
     24      -8.0093      2.00000
     25      -7.9713      2.00000
     26      -7.8541      2.00000
     27      -7.8068      2.00000
     28      -7.7627      2.00000
     29      -7.7340      2.00000
     30      -7.6691      2.00000
     31      -7.6174      2.00000
     32      -7.5932      2.00000
     33      -7.5429      2.00000
     34      -7.5016      2.00000
     35      -7.4666      2.00000
     36      -7.4504      2.00000
     37      -7.3897      2.00000
     38      -7.3556      2.00000
     39      -7.3536      2.00000
     40      -7.3361      2.00000
     41      -7.2794      2.00000
     42      -7.2668      2.00000
     43      -7.2496      2.00000
     44      -7.2168      2.00000
     45      -7.1976      2.00000
     46      -7.1579      2.00000
     47      -7.1175      2.00000
     48      -7.0930      2.00000
     49      -7.0779      2.00000
     50      -7.0571      2.00000
     51      -7.0443      2.00000
     52      -7.0200      2.00000
     53      -6.9693      2.00000
     54      -6.9286      2.00000
     55      -6.8883      2.00000
     56      -6.8712      2.00000
     57      -6.8476      2.00000
     58      -6.7878      2.00000
     59      -6.7422      2.00000
     60      -6.7006      2.00000
     61      -6.5998      2.00000
     62      -6.3606      2.00000
     63      -5.8044      2.00000
     64      -4.8670      2.00000
     65      -4.6142      2.00000
     66      -4.4051      2.00000
     67      -3.2837      0.00000
     68      -3.1197      0.00000
     69      -2.8398      0.00000
     70      -2.5543      0.00000
     71      -2.3939      0.00000
     72      -2.0841      0.00000
     73      -1.9430      0.00000
     74      -1.3768      0.00000
     75      -1.1760      0.00000
     76      -1.0264      0.00000
     77      -0.8964      0.00000
     78      -0.6945      0.00000
     79      -0.5022      0.00000
     80      -0.1833      0.00000


--------------------------------------------------------------------------------------------------------


 soft charge-density along one line, spin component           1
         0         1         2         3         4         5         6         7         8         9
 total charge-density along one line
 
 pseudopotential strength for first ion, spin component:           1
-15.644   0.004   0.003   0.006   0.002   0.796  -0.001  -0.001
  0.004 -15.649   0.007  -0.001  -0.006  -0.001   0.796  -0.001
  0.003   0.007 -15.651   0.002   0.007  -0.001  -0.001   0.797
  0.006  -0.001   0.002 -15.653   0.010  -0.001   0.000  -0.000
  0.002  -0.006   0.007   0.010 -15.648  -0.000   0.001  -0.001
  0.796  -0.001  -0.001  -0.001  -0.000   0.331   0.000   0.000
 -0.001   0.796  -0.001   0.000   0.001   0.000   0.331   0.000
 -0.001  -0.001   0.797  -0.000  -0.001   0.000   0.000   0.331
 -0.001   0.000  -0.000   0.797  -0.002   0.000  -0.000   0.000
 -0.000   0.001  -0.001  -0.002   0.796   0.000  -0.000   0.000
  0.002  -0.001   0.002  -0.003   0.000   0.000   0.000  -0.000
 -0.000   0.000  -0.000   0.000  -0.000  -0.000  -0.000   0.000
 -0.017   0.023   0.007  -0.000   0.012   0.003  -0.004  -0.002
 -0.000  -0.012   0.027  -0.017  -0.000  -0.000   0.002  -0.005
 -0.012  -0.000   0.010   0.023  -0.018   0.002  -0.000  -0.002
  0.011  -0.015  -0.005   0.000  -0.008  -0.002   0.003   0.001
  0.000   0.008  -0.017   0.011   0.000  -0.000  -0.001   0.003
  0.008   0.000  -0.006  -0.015   0.011  -0.001  -0.000   0.001
 total augmentation occupancy for first ion, spin component:           1
  1.981  -0.004   0.002  -0.003   0.003  -0.025   0.002  -0.007   0.002  -0.006  -0.022  -0.007  -0.007  -0.002  -0.005  -0.011
 -0.004   1.966   0.006  -0.000   0.004   0.002  -0.007  -0.007   0.002  -0.004  -0.031  -0.019   0.009   0.002   0.006   0.015
  0.002   0.006   1.975  -0.005   0.003  -0.007  -0.007  -0.015   0.002  -0.004  -0.016   0.003   0.011   0.008  -0.003   0.005
 -0.003  -0.000  -0.005   1.977   0.010   0.002   0.002   0.002  -0.021  -0.014   0.011  -0.004   0.002  -0.009  -0.001  -0.001
  0.003   0.004   0.003   0.010   1.970  -0.006  -0.004  -0.004  -0.014  -0.013   0.022   0.014   0.000   0.002   0.002   0.008
 -0.025   0.002  -0.007   0.002  -0.006   0.032  -0.010  -0.017   0.001  -0.006   0.045  -0.021   0.030   0.007   0.014  -0.002
  0.002  -0.007  -0.007   0.002  -0.004  -0.010   0.041   0.006   0.003   0.001   0.032   0.001  -0.028  -0.002  -0.001   0.001
 -0.007  -0.007  -0.015   0.002  -0.004  -0.017   0.006   0.048  -0.008   0.002   0.021  -0.016  -0.024  -0.037  -0.010   0.001
  0.002   0.002   0.002  -0.021  -0.014   0.001   0.003  -0.008   0.030  -0.009  -0.032   0.027   0.003   0.021  -0.017   0.000
 -0.006  -0.004  -0.004  -0.014  -0.013  -0.006   0.001   0.002  -0.009   0.029  -0.029   0.004  -0.015  -0.002   0.010   0.001
 -0.022  -0.031  -0.016   0.011   0.022   0.045   0.032   0.021  -0.032  -0.029   1.169  -0.226   0.050  -0.090   0.070  -0.005
 -0.007  -0.019   0.003  -0.004   0.014  -0.021   0.001  -0.016   0.027   0.004  -0.226   0.092  -0.019   0.046  -0.034   0.002
 -0.007   0.009   0.011   0.002   0.000   0.030  -0.028  -0.024   0.003  -0.015   0.050  -0.019   0.054   0.017   0.012  -0.002
 -0.002   0.002   0.008  -0.009   0.002   0.007  -0.002  -0.037   0.021  -0.002  -0.090   0.046   0.017   0.049  -0.006  -0.000
 -0.005   0.006  -0.003  -0.001   0.002   0.014  -0.001  -0.010  -0.017   0.010   0.070  -0.034   0.012  -0.006   0.027  -0.001
 -0.011   0.015   0.005  -0.001   0.008  -0.002   0.001   0.001   0.000   0.001  -0.005   0.002  -0.002  -0.000  -0.001   0.000
 -0.001  -0.007   0.017  -0.010  -0.000   0.000  -0.000   0.002  -0.001   0.000   0.011  -0.004  -0.000  -0.003   0.001  -0.000
 -0.008  -0.000   0.007   0.014  -0.011  -0.001   0.000   0.000   0.001  -0.001  -0.008   0.003  -0.001   0.001  -0.002   0.000


------------------------ aborting loop because EDIFF is reached ----------------------------------------


    CHARGE:  cpu time    0.1977: real time    0.1983
    FORLOC:  cpu time    0.0851: real time    0.0895
    FORNL :  cpu time    0.6351: real time    0.7107
    STRESS:  cpu time    1.8344: real time    2.0138
    FORCOR:  cpu time    0.4344: real time    0.4367
    FORHAR:  cpu time    0.1329: real time    0.1337
    MIXING:  cpu time    0.0286: real time    0.0287
    OFIELD:  cpu time    0.0002: real time    0.0019

  FORCE on cell =-STRESS in cart. coord.  units (eV):
  Direction    XX          YY          ZZ          XY          YZ          ZX
  --------------------------------------------------------------------------------------
  Alpha Z    15.16569    15.16569    15.16569
  Ewald    6552.53911  5849.73334  5170.67611  2379.53164   557.71377 -2589.81290
  Hartree 10521.83749  9732.38764  9201.34537  2103.54176   416.41600 -2269.86533
  E(xc)    -696.13871  -695.71666  -696.04842     0.65182     0.54919    -0.82255
  Local  -17713.45993-16217.60159-15011.89707 -4480.65876  -968.27631  4856.04941
  n-local  -818.07647  -818.49123  -818.51740     1.01300    -0.69386    -0.79470
  augment   496.11749   495.24065   496.36577    -0.83315    -1.48646     1.14546
  Kinetic  1642.09373  1639.68971  1642.65170    -2.56923    -4.31528     3.51275
  Fock        0.00000     0.00000     0.00000     0.00000     0.00000     0.00000
  -------------------------------------------------------------------------------------
  Total       0.07839     0.40757    -0.25826     0.67709    -0.09297    -0.58786
  in kB       0.00745     0.03873    -0.02454     0.06434    -0.00883    -0.05586
  external pressure =        0.01 kB  Pullay stress =        0.00 kB


 VOLUME and BASIS-vectors are now :
 -----------------------------------------------------------------------------
  energy-cutoff  :      400.00
  volume of cell :    16861.21
      direct lattice vectors                 reciprocal lattice vectors
    25.097312000  0.000000000  0.000000000     0.039844905  0.000000000  0.000000000
     0.000000000 26.397029177  0.000000000     0.000000000  0.037883051  0.000000000
     0.000000000  0.000000000 25.451099910     0.000000000  0.000000000  0.039291033

  length of vectors
    25.097312000 26.397029177 25.451099910     0.039844905  0.037883051  0.039291033


 FORCES acting on ions
    electron-ion (+dipol)            ewald-force                    non-local-force                 convergence-correction
 -----------------------------------------------------------------------------------------------
   0.602E+03 0.387E+03 -.654E+03   -.600E+03 -.385E+03 0.651E+03   -.237E+01 -.175E+01 0.308E+01   0.174E-04 0.158E-04 0.121E-04
   0.879E+03 -.107E+03 0.334E+03   -.875E+03 0.107E+03 -.334E+03   -.388E+01 -.233E+00 0.546E+00   -.173E-03 0.146E-05 0.282E-04
   -.484E+03 0.128E+03 0.778E+03   0.482E+03 -.126E+03 -.773E+03   0.198E+01 -.205E+01 -.488E+01   -.931E-04 -.812E-04 0.382E-04
   -.289E+03 -.889E+03 -.265E+03   0.289E+03 0.884E+03 0.262E+03   0.210E+00 0.526E+01 0.321E+01   -.206E-04 0.196E-03 0.119E-03
   0.412E+03 0.806E+03 0.265E+03   -.411E+03 -.802E+03 -.262E+03   -.114E+01 -.438E+01 -.295E+01   -.127E-04 -.910E-04 -.664E-04
   0.466E+03 -.771E+03 0.200E+03   -.466E+03 0.768E+03 -.200E+03   0.389E-01 0.303E+01 -.109E-01   -.105E-03 0.154E-03 0.500E-04
   0.211E+03 0.208E+03 0.821E+03   -.212E+03 -.206E+03 -.819E+03   0.755E+00 -.150E+01 -.273E+01   0.353E-04 -.910E-04 -.121E-03
   -.587E+03 -.117E+03 -.717E+03   0.586E+03 0.116E+03 0.715E+03   0.152E+01 0.159E+01 0.179E+01   0.584E-04 0.661E-04 0.135E-03
   0.340E+03 -.377E+03 -.830E+03   -.341E+03 0.374E+03 0.828E+03   0.290E+00 0.290E+01 0.248E+01   -.138E-03 0.109E-03 0.114E-03
   -.555E+03 -.562E+03 0.436E+03   0.554E+03 0.561E+03 -.436E+03   0.687E+00 0.511E+00 -.604E+00   -.263E-04 0.148E-04 -.615E-04
   -.783E+03 0.588E+03 -.208E+01   0.779E+03 -.586E+03 0.313E+01   0.400E+01 -.213E+01 -.113E+01   0.128E-03 -.194E-03 -.291E-04
   -.212E+03 0.706E+03 -.367E+03   0.214E+03 -.705E+03 0.366E+03   -.151E+01 -.123E+01 0.151E+01   -.574E-04 -.153E-03 0.292E-04
 -----------------------------------------------------------------------------------------------
   -.556E+00 0.831E-02 -.304E+00   0.284E-13 0.000E+00 0.455E-12   0.560E+00 0.951E-02 0.317E+00   -.386E-03 -.533E-04 0.247E-03
 
 
 POSITION                                       TOTAL-FORCE (eV/Angst)
 -----------------------------------------------------------------------------------
     12.48215     14.72046     17.60920        -0.080900     -0.075811      0.025262
     12.73983     16.11896     15.16211        -0.052960     -0.050426      0.134140
     17.57946     16.18048     12.30820        -0.002159      0.028949      0.003573
     16.49825     19.77770     16.15858         0.136504      0.197640      0.066015
     12.83912     13.38067     15.20723         0.092537     -0.070143      0.005448
     14.36282     18.25561     15.24575         0.063359      0.167469     -0.039847
     15.03810     16.02460     13.64234        -0.029342     -0.045243     -0.084868
     16.46866     17.08085     16.86306         0.009563      0.029414     -0.003104
     13.79756     17.11286     17.75930        -0.121832     -0.093018     -0.007018
     17.00685     18.04764     14.17740         0.070442     -0.107573     -0.085231
     17.35916     15.24660     14.96700         0.064905      0.023255     -0.076697
     14.99579     14.81791     16.31301        -0.150116     -0.004512      0.062327
 -----------------------------------------------------------------------------------
    total drift:                                0.003582      0.017764      0.013243


--------------------------------------------------------------------------------------------------------



  FREE ENERGIE OF THE ION-ELECTRON SYSTEM (eV)
  ---------------------------------------------------
  free  energy   TOTEN  =       -23.37156266 eV

  energy  without entropy=      -23.37156266  energy(sigma->0) =      -23.37156266
 


--------------------------------------------------------------------------------------------------------


    POTLOK:  cpu time    0.4210: real time    0.4254


--------------------------------------------------------------------------------------------------------




--------------------------------------------------------------------------------------------------------


    WAVPRE:  cpu time    0.0909: real time    0.0984
    FEWALD:  cpu time    0.0004: real time    0.0008

 real space projection operators:
  total allocation   :       2594.25 KBytes
  max/ min on nodes  :        181.83        144.56

    ORTHCH:  cpu time    0.2374: real time    0.2381
     LOOP+:  cpu time   60.9586: real time   64.4621


--------------------------------------- Iteration      2(   1)  ---------------------------------------


    POTLOK:  cpu time    0.4221: real time    0.4228
    SETDIJ:  cpu time    0.0019: real time    0.0019
     EDDAV:  cpu time    2.2622: real time    2.3715
       DOS:  cpu time    0.0005: real time    0.0005
    CHARGE:  cpu time    0.2178: real time    0.3236
    MIXING:  cpu time    0.0136: real time    0.0136
    --------------------------------------------
      LOOP:  cpu time    2.9183: real time    3.1341

 eigenvalue-minimisations  :   168
 total energy-change (2. order) :-0.8337331E-02  (-0.4413333E+00)
 number of electron     132.0000018 magnetization 
 augmentation part       63.6940333 magnetization 

 Broyden mixing:
  rms(total) = 0.56724E-02    rms(broyden)= 0.56619E-02
  rms(prec ) = 0.60331E-02
  weight for this iteration     100.00

 Free energy of the ion-electron system (eV)
  ---------------------------------------------------
  alpha Z        PSCENC =        15.16568811
  Ewald energy   TEWEN  =     17545.16183263
  -Hartree energ DENC   =    -29427.91863313
  -exchange      EXHF   =         0.00000000
  -V(xc)+E(xc)   XCENC  =      -141.38473897
  PAW double counting   =     10451.50429948    -9911.61354023
  entropy T*S    EENTRO =        -0.00000000
  eigenvalues    EBANDS =     -1003.14674273
  atomic energy  EATOM  =     12448.85194051
  Solvation  Ediel_sol  =         0.00000000
  ---------------------------------------------------
  free energy    TOTEN  =       -23.37989432 eV

  energy without entropy =      -23.37989432  energy(sigma->0) =      -23.37989432


--------------------------------------------------------------------------------------------------------




--------------------------------------- Iteration      2(   2)  ---------------------------------------


    POTLOK:  cpu time    0.3924: real time    0.4408
    SETDIJ:  cpu time    0.0018: real time    0.0018
    EDDIAG:  cpu time    0.4457: real time    0.4468
  RMM-DIIS:  cpu time    1.5762: real time    1.5812
    ORTHCH:  cpu time    0.0364: real time    0.0365
       DOS:  cpu time    0.0005: real time    0.0005
    CHARGE:  cpu time    0.1885: real time    0.1888
    MIXING:  cpu time    0.0141: real time    0.0142
    --------------------------------------------
      LOOP:  cpu time    2.6558: real time    2.7105

 eigenvalue-minimisations  :   160
 total energy-change (2. order) :-0.1803239E-02  (-0.1936942E-02)
 number of electron     132.0000018 magnetization 
 augmentation part       63.6943078 magnetization 

 Broyden mixing:
  rms(total) = 0.44981E-02    rms(broyden)= 0.44957E-02
  rms(prec ) = 0.47726E-02
  weight for this iteration     100.00

 eigenvalues of (default mixing * dielectric matrix)
  average eigenvalue GAMMA=   0.5857
  0.5857

 Free energy of the ion-electron system (eV)
  ---------------------------------------------------
  alpha Z        PSCENC =        15.16568811
  Ewald energy   TEWEN  =     17545.16183263
  -Hartree energ DENC   =    -29428.02975065
  -exchange      EXHF   =         0.00000000
  -V(xc)+E(xc)   XCENC  =      -141.38046520
  PAW double counting   =     10450.94752942    -9911.02055120
  entropy T*S    EENTRO =        -0.00000000
  eigenvalues    EBANDS =     -1003.07792118
  atomic energy  EATOM  =     12448.85194051
  Solvation  Ediel_sol  =         0.00000000
  ---------------------------------------------------
  free energy    TOTEN  =       -23.38169756 eV

  energy without entropy =      -23.38169756  energy(sigma->0) =      -23.38169756


--------------------------------------------------------------------------------------------------------




[...]
     16.92944     17.94222     14.09380        -0.004614      0.009432      0.011430
     17.28738     15.26421     15.03101        -0.003471      0.002140     -0.001623
     15.02048     14.89371     16.55141         0.006097      0.003934      0.003665
 -----------------------------------------------------------------------------------
    total drift:                                0.005035     -0.005345     -0.001929


--------------------------------------------------------------------------------------------------------



  FREE ENERGIE OF THE ION-ELECTRON SYSTEM (eV)
  ---------------------------------------------------
  free  energy   TOTEN  =       -23.50158464 eV

  energy  without entropy=      -23.50158464  energy(sigma->0) =      -23.50158464
 
 d Force =-0.1859903E-05[-0.953E-05, 0.581E-05]  d Energy = 0.8505562E-05-0.104E-04
 d Force = 0.1421471E+00[ 0.142E+00, 0.142E+00]  d Ewald  = 0.1421471E+00-0.540E-08


--------------------------------------------------------------------------------------------------------


    POTLOK:  cpu time    0.4282: real time    0.4286


--------------------------------------------------------------------------------------------------------




--------------------------------------------------------------------------------------------------------


    WAVPRE:  cpu time    0.0846: real time    0.0874
    FEWALD:  cpu time    0.0003: real time    0.0003

 real space projection operators:
  total allocation   :       2597.48 KBytes
  max/ min on nodes  :        194.34        127.69

    ORTHCH:  cpu time    0.2321: real time    0.2322
     LOOP+:  cpu time    9.4992: real time    9.8083


--------------------------------------- Iteration     69(   1)  ---------------------------------------


    POTLOK:  cpu time    0.5062: real time    0.6139
    SETDIJ:  cpu time    0.0017: real time    0.0017
     EDDAV:  cpu time    2.9100: real time    3.0608
       DOS:  cpu time    0.0004: real time    0.0004
    CHARGE:  cpu time    0.1914: real time    0.1917
    MIXING:  cpu time    0.0138: real time    0.0138
    --------------------------------------------
      LOOP:  cpu time    3.6237: real time    3.8825

 eigenvalue-minimisations  :   176
 total energy-change (2. order) :-0.2439083E-07  (-0.7546474E-03)
 number of electron     132.0000066 magnetization 
 augmentation part       63.7056919 magnetization 

 Broyden mixing:
  rms(total) = 0.53364E-03    rms(broyden)= 0.53343E-03
  rms(prec ) = 0.56039E-03
  weight for this iteration     100.00

 Free energy of the ion-electron system (eV)
  ---------------------------------------------------
  alpha Z        PSCENC =        15.16568811
  Ewald energy   TEWEN  =     17608.95412835
  -Hartree energ DENC   =    -29494.20001919
  -exchange      EXHF   =         0.00000000
  -V(xc)+E(xc)   XCENC  =      -141.43080347
  PAW double counting   =     10446.03182618    -9905.77127266
  entropy T*S    EENTRO =        -0.00000000
  eigenvalues    EBANDS =     -1001.10306489
  atomic energy  EATOM  =     12448.85194051
  Solvation  Ediel_sol  =         0.00000000
  ---------------------------------------------------
  free energy    TOTEN  =       -23.50157705 eV

  energy without entropy =      -23.50157705  energy(sigma->0) =      -23.50157705


--------------------------------------------------------------------------------------------------------




--------------------------------------- Iteration     69(   2)  ---------------------------------------


    POTLOK:  cpu time    0.4297: real time    0.4311
    SETDIJ:  cpu time    0.0022: real time    0.0022
    EDDIAG:  cpu time    0.4444: real time    0.4449
  RMM-DIIS:  cpu time    1.0169: real time    1.1732
    ORTHCH:  cpu time    0.0336: real time    0.0336
       DOS:  cpu time    0.0004: real time    0.0004
    --------------------------------------------
      LOOP:  cpu time    1.9270: real time    2.0854

 eigenvalue-minimisations  :    94
 total energy-change (2. order) :-0.2714980E-05  (-0.3496114E-05)
 number of electron     132.0000066 magnetization 
 augmentation part       63.7056919 magnetization 

 Free energy of the ion-electron system (eV)
  ---------------------------------------------------
  alpha Z        PSCENC =        15.16568811
  Ewald energy   TEWEN  =     17608.95412835
  -Hartree energ DENC   =    -29494.19902011
  -exchange      EXHF   =         0.00000000
  -V(xc)+E(xc)   XCENC  =      -141.43083645
  PAW double counting   =     10446.03010234    -9905.76952317
  entropy T*S    EENTRO =        -0.00000000
  eigenvalues    EBANDS =     -1001.10405936
  atomic energy  EATOM  =     12448.85194051
  Solvation  Ediel_sol  =         0.00000000
  ---------------------------------------------------
  free energy    TOTEN  =       -23.50157977 eV

  energy without entropy =      -23.50157977  energy(sigma->0) =      -23.50157977


--------------------------------------------------------------------------------------------------------




 average (electrostatic) potential at core
  the test charge radii are     1.1249
  (the norm of the test charge is              1.0000)
       1 -47.9164       2 -48.2069       3 -48.0740       4 -48.0871       5 -47.9857
       6 -48.1414       7 -48.1231       8 -48.1962       9 -47.9891      10 -48.2618
      11 -48.2100      12 -48.1967
 
 
 
 E-fermi :  -4.1733     XC(G=0):  -0.3293     alpha+bet : -0.1036


 k-point     1 :       0.0000    0.0000    0.0000
  band No.  band energies     occupation 
      1      -9.3309      2.00000
      2      -9.2214      2.00000
      3      -9.1763      2.00000
      4      -9.0882      2.00000
      5      -8.9765      2.00000
      6      -8.9601      2.00000
      7      -8.8817      2.00000
      8      -8.8074      2.00000
      9      -8.7593      2.00000
     10      -8.7084      2.00000
     11      -8.6025      2.00000
     12      -8.5785      2.00000
     13      -8.5456      2.00000
     14      -8.5279      2.00000
     15      -8.5063      2.00000
     16      -8.4191      2.00000
     17      -8.3400      2.00000
     18      -8.2768      2.00000
     19      -8.2573      2.00000
     20      -8.1653      2.00000
     21      -8.1375      2.00000
     22      -8.0823      2.00000
     23      -7.9652      2.00000
     24      -7.9485      2.00000
     25      -7.9218      2.00000
     26      -7.8428      2.00000
     27      -7.8072      2.00000
     28      -7.7344      2.00000
     29      -7.7072      2.00000
     30      -7.6789      2.00000
     31      -7.6000      2.00000
     32      -7.5670      2.00000
     33      -7.5556      2.00000
     34      -7.5124      2.00000
     35      -7.4311      2.00000
     36      -7.4239      2.00000
     37      -7.4012      2.00000
     38      -7.3626      2.00000
     39      -7.3410      2.00000
     40      -7.3234      2.00000
     41      -7.2930      2.00000
     42      -7.2794      2.00000
     43      -7.2652      2.00000
     44      -7.2389      2.00000
     45      -7.1986      2.00000
     46      -7.1558      2.00000
     47      -7.1194      2.00000
     48      -7.0959      2.00000
     49      -7.0612      2.00000
     50      -7.0486      2.00000
     51      -7.0059      2.00000
     52      -7.0018      2.00000
     53      -6.9390      2.00000
     54      -6.9213      2.00000
     55      -6.8793      2.00000
     56      -6.8584      2.00000
     57      -6.8522      2.00000
     58      -6.7689      2.00000
     59      -6.7237      2.00000
     60      -6.6867      2.00000
     61      -6.6371      2.00000
     62      -6.3646      2.00000
     63      -5.8101      2.00000
     64      -4.8580      2.00000
     65      -4.5813      2.00000
     66      -4.4343      2.00000
     67      -3.2999      0.00000
     68      -3.1130      0.00000
     69      -2.8187      0.00000
     70      -2.4697      0.00000
     71      -2.3404      0.00000
     72      -2.1663      0.00000
     73      -1.9624      0.00000
     74      -1.2865      0.00000
     75      -1.1897      0.00000
     76      -1.1018      0.00000
     77      -0.8339      0.00000
     78      -0.6754      0.00000
     79      -0.4907      0.00000
     80      -0.3474      0.00000


--------------------------------------------------------------------------------------------------------


 soft charge-density along one line, spin component           1
         0         1         2         3         4         5         6         7         8         9
 total charge-density along one line
 
 pseudopotential strength for first ion, spin component:           1
-15.610   0.003   0.005   0.010  -0.000   0.789  -0.001  -0.001
  0.003 -15.608   0.007  -0.002  -0.011  -0.001   0.789  -0.001
  0.005   0.007 -15.608   0.001   0.010  -0.001  -0.001   0.789
  0.010  -0.002   0.001 -15.613   0.008  -0.002   0.000  -0.000
 -0.000  -0.011   0.010   0.008 -15.616   0.000   0.002  -0.002
  0.789  -0.001  -0.001  -0.002   0.000   0.333   0.000   0.000
 -0.001   0.789  -0.001   0.000   0.002   0.000   0.333   0.000
 -0.001  -0.001   0.789  -0.000  -0.002   0.000   0.000   0.333
 -0.002   0.000  -0.000   0.789  -0.001   0.000  -0.000   0.000
  0.000   0.002  -0.002  -0.001   0.790  -0.000  -0.000   0.000
  0.002  -0.003  -0.000  -0.003   0.001   0.000   0.000   0.000
 -0.000   0.000   0.000   0.000  -0.000   0.000  -0.000  -0.000
 -0.020   0.018   0.010  -0.000   0.017   0.004  -0.003  -0.002
 -0.000  -0.017   0.022  -0.020  -0.000  -0.000   0.003  -0.004
 -0.017  -0.000   0.011   0.018  -0.019   0.003  -0.000  -0.002
  0.013  -0.012  -0.007   0.000  -0.011  -0.002   0.002   0.001
  0.000   0.011  -0.014   0.013   0.000  -0.000  -0.002   0.003
  0.011   0.000  -0.007  -0.012   0.012  -0.002  -0.000   0.001
 total augmentation occupancy for first ion, spin component:           1
  1.981  -0.002   0.003   0.000  -0.002  -0.026  -0.000  -0.007  -0.003   0.001  -0.018  -0.002  -0.010  -0.000  -0.003  -0.012
 -0.002   1.965   0.003   0.002  -0.001  -0.000  -0.007  -0.004   0.001   0.003  -0.017  -0.016   0.002  -0.000   0.006   0.012
  0.003   0.003   1.975  -0.004   0.008  -0.007  -0.004  -0.019   0.001  -0.010  -0.009  -0.003   0.011   0.008  -0.004   0.007
  0.000   0.002  -0.004   1.980   0.008  -0.003   0.001   0.001  -0.024  -0.012   0.016  -0.001   0.001  -0.011  -0.001  -0.001
 -0.002  -0.001   0.008   0.008   1.967   0.001   0.003  -0.010  -0.012  -0.009   0.015   0.010   0.003   0.005   0.005   0.011
 -0.026  -0.000  -0.007  -0.003   0.001   0.028  -0.007  -0.015  -0.001  -0.004   0.037  -0.023   0.024   0.005   0.014  -0.001
 -0.000  -0.007  -0.004   0.001   0.003  -0.007   0.031  -0.001   0.004   0.006   0.001   0.014  -0.017   0.010  -0.001   0.001
 -0.007  -0.004  -0.019   0.001  -0.010  -0.015  -0.001   0.039  -0.010   0.002   0.008  -0.006  -0.019  -0.029  -0.008   0.001
 -0.003   0.001   0.001  -0.024  -0.012  -0.001   0.004  -0.010   0.028  -0.011  -0.036   0.026   0.004   0.023  -0.015   0.000
  0.001   0.003  -0.010  -0.012  -0.009  -0.004   0.006   0.002  -0.011   0.031  -0.010   0.001  -0.019  -0.005   0.013   0.001
 -0.018  -0.017  -0.009   0.016   0.015   0.037   0.001   0.008  -0.036  -0.010   1.199  -0.210   0.066  -0.074   0.076  -0.007
 -0.002  -0.016  -0.003  -0.001   0.010  -0.023   0.014  -0.006   0.026   0.001  -0.210   0.086  -0.029   0.037  -0.035   0.003
 -0.010   0.002   0.011   0.001   0.003   0.024  -0.017  -0.019   0.004  -0.019   0.066  -0.029   0.041   0.008   0.009  -0.002
 -0.000  -0.000   0.008  -0.011   0.005   0.005   0.010  -0.029   0.023  -0.005  -0.074   0.037   0.008   0.042  -0.009   0.000
 -0.003   0.006  -0.004  -0.001   0.005   0.014  -0.001  -0.008  -0.015   0.013   0.076  -0.035   0.009  -0.009   0.026  -0.001
 -0.012   0.012   0.007  -0.001   0.011  -0.001   0.001   0.001   0.000   0.001  -0.007   0.003  -0.002   0.000  -0.001   0.000
 -0.001  -0.010   0.014  -0.012  -0.000   0.000  -0.001   0.001  -0.001   0.000   0.009  -0.003   0.000  -0.002   0.001  -0.000
 -0.010  -0.001   0.008   0.011  -0.013  -0.001   0.000   0.000   0.001  -0.001  -0.009   0.003  -0.001   0.001  -0.002   0.000


------------------------ aborting loop because EDIFF is reached ----------------------------------------


    CHARGE:  cpu time    0.1915: real time    0.1921
    FORLOC:  cpu time    0.0300: real time    0.0300
    FORNL :  cpu time    0.5969: real time    0.5972
    STRESS:  cpu time    1.8974: real time    1.9962
    FORCOR:  cpu time    0.4359: real time    0.4373
    FORHAR:  cpu time    0.1344: real time    0.1344
    MIXING:  cpu time    0.0118: real time    0.0118
    OFIELD:  cpu time    0.0001: real time    0.0001

  FORCE on cell =-STRESS in cart. coord.  units (eV):
  Direction    XX          YY          ZZ          XY          YZ          ZX
  --------------------------------------------------------------------------------------
  Alpha Z    15.16569    15.16569    15.16569
  Ewald    6404.19541  5944.55658  5260.19944  2394.85141   592.00571 -2538.65520
  Hartree 10394.63489  9823.32578  9276.23567  2117.75018   453.76724 -2228.32444
  E(xc)    -696.06792  -695.56011  -695.89609     0.69770     0.48823    -0.80657
  Local  -17438.28924-16403.45596-15175.01953 -4510.81839 -1039.78696  4764.39302
  n-local  -818.94289  -819.53383  -819.51886     0.90753    -0.75590    -0.84479
  augment   496.26187   495.31479   496.12318    -0.75405    -1.48268     0.94163
  Kinetic  1642.42643  1639.46895  1642.02421    -2.66714    -4.23358     3.30247
  Fock        0.00000     0.00000     0.00000     0.00000     0.00000     0.00000
  -------------------------------------------------------------------------------------
  Total      -0.61577    -0.71811    -0.68629    -0.03276     0.00207     0.00612
  in kB      -0.05851    -0.06824    -0.06521    -0.00311     0.00020     0.00058
  external pressure =       -0.06 kB  Pullay stress =        0.00 kB


 VOLUME and BASIS-vectors are now :
 -----------------------------------------------------------------------------
  energy-cutoff  :      400.00
  volume of cell :    16861.21
      direct lattice vectors                 reciprocal lattice vectors
    25.097312000  0.000000000  0.000000000     0.039844905  0.000000000  0.000000000
     0.000000000 26.397029177  0.000000000     0.000000000  0.037883051  0.000000000
     0.000000000  0.000000000 25.451099910     0.000000000  0.000000000  0.039291033

  length of vectors
    25.097312000 26.397029177 25.451099910     0.039844905  0.037883051  0.039291033


 FORCES acting on ions
    electron-ion (+dipol)            ewald-force                    non-local-force                 convergence-correction
 -----------------------------------------------------------------------------------------------
   0.623E+03 0.499E+03 -.567E+03   -.620E+03 -.497E+03 0.564E+03   -.274E+01 -.242E+01 0.262E+01   -.184E-03 -.833E-04 0.334E-03
   0.914E+03 -.181E+03 0.257E+03   -.910E+03 0.181E+03 -.257E+03   -.365E+01 -.593E+00 0.106E+00   -.783E-03 0.102E-02 0.516E-04
   -.454E+03 0.171E+03 0.795E+03   0.453E+03 -.168E+03 -.789E+03   0.162E+01 -.258E+01 -.513E+01   0.462E-03 -.261E-03 -.219E-03
   -.346E+03 -.855E+03 -.192E+03   0.345E+03 0.849E+03 0.190E+03   0.109E+01 0.541E+01 0.258E+01   0.269E-03 -.111E-02 -.764E-03
   0.372E+03 0.832E+03 0.375E+03   -.371E+03 -.828E+03 -.372E+03   -.960E+00 -.412E+01 -.278E+01   -.271E-03 0.159E-02 0.808E-03
   0.440E+03 -.797E+03 0.143E+03   -.440E+03 0.793E+03 -.143E+03   -.561E-01 0.326E+01 -.179E+00   0.443E-03 -.574E-03 0.307E-03
   0.215E+03 0.172E+03 0.792E+03   -.216E+03 -.172E+03 -.789E+03   0.931E+00 -.594E+00 -.238E+01   0.768E-04 -.101E-02 0.569E-03
   -.558E+03 -.189E+03 -.718E+03   0.557E+03 0.187E+03 0.716E+03   0.156E+01 0.180E+01 0.202E+01   0.170E-02 -.107E-02 -.196E-03
   0.354E+03 -.350E+03 -.856E+03   -.354E+03 0.348E+03 0.853E+03   -.593E-01 0.264E+01 0.339E+01   0.210E-03 0.845E-03 -.711E-03
   -.519E+03 -.523E+03 0.483E+03   0.519E+03 0.523E+03 -.482E+03   0.305E+00 0.517E+00 -.507E+00   0.688E-04 -.166E-02 -.117E-02
   -.796E+03 0.567E+03 -.257E+02   0.792E+03 -.565E+03 0.265E+02   0.385E+01 -.209E+01 -.824E+00   0.170E-02 -.991E-03 -.120E-02
   -.245E+03 0.653E+03 -.486E+03   0.246E+03 -.651E+03 0.485E+03   -.143E+01 -.128E+01 0.113E+01   0.256E-03 -.253E-03 -.470E-03
 -----------------------------------------------------------------------------------------------
   -.474E+00 0.425E-01 -.555E-01   -.341E-12 0.000E+00 0.171E-12   0.474E+00 -.444E-01 0.518E-01   0.395E-02 -.355E-02 -.266E-02
 
 
 POSITION                                       TOTAL-FORCE (eV/Angst)
 -----------------------------------------------------------------------------------
     12.41509     14.41547     17.44900         0.003461     -0.001109      0.004707
     12.67391     16.27121     15.35666        -0.006126      0.005334      0.004214
     17.38980     15.99673     12.30697        -0.001133     -0.002306     -0.008724
     16.78377     19.87859     15.95234        -0.001679     -0.003679     -0.007145
     13.29195     13.63505     14.82190        -0.003577      0.001428     -0.000679
     14.40888     18.37486     15.35093         0.003724     -0.001956      0.005881
     14.88546     15.90536     13.75165        -0.000034     -0.002311      0.002265
     16.43352     17.23550     16.88848         0.007886     -0.004534     -0.001553
     13.64799     16.95111     17.85863         0.000018      0.004617     -0.002394
     16.92964     17.94233     14.09413        -0.007176      0.004706      0.003740
     17.28722     15.26437     15.03112         0.000653     -0.002029     -0.004556
     15.02052     14.89377     16.55139         0.003984      0.001839      0.004245
 -----------------------------------------------------------------------------------
    total drift:                                0.003464     -0.005458     -0.006302


--------------------------------------------------------------------------------------------------------



  FREE ENERGIE OF THE ION-ELECTRON SYSTEM (eV)
  ---------------------------------------------------
  free  energy   TOTEN  =       -23.50157977 eV

  energy  without entropy=      -23.50157977  energy(sigma->0) =      -23.50157977
 
 d Force =-0.3714713E-05[-0.133E-04, 0.592E-05]  d Energy =-0.4871205E-05 0.116E-05
 d Force =-0.8835893E-01[-0.883E-01,-0.884E-01]  d Ewald  =-0.8835894E-01 0.152E-08


--------------------------------------------------------------------------------------------------------


    POTLOK:  cpu time    0.4308: real time    0.4313


--------------------------------------------------------------------------------------------------------




--------------------------------------------------------------------------------------------------------


  
 reached required accuracy - stopping structural energy minimisation
     LOOP+:  cpu time    9.2921: real time    9.8126
    4ORBIT:  cpu time    0.0000: real time    0.0000

 total amount of memory used by VASP MPI-rank0    98999. kBytes
=======================================================================

   base      :      30000. kBytes
   nonlr-proj:        514. kBytes
   fftplans  :      23303. kBytes
   grid      :      32901. kBytes
   one-center:         15. kBytes
   wavefun   :      12266. kBytes
 
  
  
 General timing and accounting informations for this job:
 ========================================================
  
                  Total CPU time used (sec):     1241.193
                            User time (sec):     1200.044
                          System time (sec):       41.149
                         Elapsed time (sec):     1304.112
  
                   Maximum memory used (kb):      225960.
                   Average memory used (kb):           0.
  
                          Minor page faults:      3213469
                          Major page faults:            0
                 Voluntary context switches:         1361
