 running on   32 total cores
 distrk:  each k-point on   32 cores,    1 groups
 distr:  one band on   16 cores,    2 groups
 using from now: INCAR     
 vasp.5.4.4.18Apr17-6-g9f103f2a35 (build Jun 19 2019 11:58:18) complex          
  
 POSCAR found type information on POSCAR  Ag
 POSCAR found :  1 types and      12 ions
 scaLAPACK will be used

 ----------------------------------------------------------------------------- 
|                                                                             |
|           W    W    AA    RRRRR   N    N  II  N    N   GGGG   !!!           |
|           W    W   A  A   R    R  NN   N  II  NN   N  G    G  !!!           |
|           W    W  A    A  R    R  N N  N  II  N N  N  G       !!!           |
|           W WW W  AAAAAA  RRRRR   N  N N  II  N  N N  G  GGG   !            |
|           WW  WW  A    A  R   R   N   NN  II  N   NN  G    G                |
|           W    W  A    A  R    R  N    N  II  N    N   GGGG   !!!           |
|                                                                             |
|      For optimal performance we recommend to set                            |
|        NCORE= 4 - approx SQRT( number of cores)                             |
|      NCORE specifies how many cores store one orbital (NPAR=cpu/NCORE).     |
|      This setting can  greatly improve the performance of VASP for DFT.     |
|      The default,   NCORE=1            might be grossly inefficient         |
|      on modern multi-core architectures or massively parallel machines.     |
|      Do your own testing !!!!                                               |
|      Unfortunately you need to use the default for GW and RPA calculations. |
|      (for HF NCORE is supported but not extensively tested yet)             |
|                                                                             |
 ----------------------------------------------------------------------------- 

 LDA part: xc-table for Pade appr. of Perdew
 POSCAR, INCAR and KPOINTS ok, starting setup
 FFT: planning ...
 WAVECAR not read
 entering main loop
       N       E                     dE             d eps       ncg     rms          rms(c)
DAV:   1     0.108530109818E+04    0.10853E+04   -0.17974E+04   176   0.696E+02
DAV:   2     0.655143571036E+03   -0.43016E+03   -0.40501E+03   320   0.710E+01
DAV:   3     0.167170439480E+03   -0.48797E+03   -0.45376E+03   264   0.797E+01
DAV:   4    -0.482824858887E+01   -0.17200E+03   -0.15809E+03   208   0.791E+01
DAV:   5    -0.246051971621E+02   -0.19777E+02   -0.19502E+02   168   0.329E+01    0.579E+00
RMM:   6    -0.235429823438E+02    0.10622E+01   -0.84535E+00   160   0.981E+00    0.193E+00
RMM:   7    -0.233869858776E+02    0.15600E+00   -0.10838E+00   160   0.332E+00    0.739E-01
RMM:   8    -0.233646809718E+02    0.22305E-01   -0.98529E-02   160   0.105E+00    0.311E-01
RMM:   9    -0.233613737799E+02    0.33072E-02   -0.16084E-02   162   0.506E-01    0.131E-01
RMM:  10    -0.233612526452E+02    0.12113E-03   -0.25335E-03   160   0.150E-01    0.641E-02
RMM:  11    -0.233634774560E+02   -0.22248E-02   -0.28501E-03   160   0.153E-01    0.665E-02
RMM:  12    -0.233656194731E+02   -0.21420E-02   -0.23101E-03   160   0.233E-01    0.481E-02
RMM:  13    -0.233673894349E+02   -0.17700E-02   -0.52284E-04   160   0.979E-02    0.125E-02
RMM:  14    -0.233693127934E+02   -0.19234E-02   -0.18155E-04   160   0.374E-02    0.128E-02
RMM:  15    -0.233703736288E+02   -0.10608E-02   -0.10079E-04   127   0.321E-02    0.536E-03
RMM:  16    -0.233709877225E+02   -0.61409E-03   -0.35958E-05    99   0.181E-02    0.353E-03
RMM:  17    -0.233713058949E+02   -0.31817E-03   -0.23346E-05    99   0.159E-02    0.282E-03
RMM:  18    -0.233714111108E+02   -0.10522E-03   -0.58000E-06    97   0.815E-03    0.757E-04
RMM:  19    -0.233715146730E+02   -0.10356E-03   -0.53101E-06    49   0.306E-03    0.353E-04
RMM:  20    -0.233715427942E+02   -0.28121E-04   -0.11784E-06    47   0.248E-03    0.311E-04
RMM:  21    -0.233715569905E+02   -0.14196E-04   -0.38198E-07    32   0.214E-03    0.181E-04
RMM:  22    -0.233715626633E+02   -0.56728E-05   -0.42105E-08    31   0.213E-03
   1 F= -.23371563E+02 E0= -.23371563E+02  d E =-.233716E+02
 curvature:   0.00 expect dE= 0.000E+00 dE for cont linesearch  0.000E+00
 trial: gam= 0.00000 g(F)=  0.117E-01 g(S)=  0.000E+00 ort = 0.000E+00 (trialstep = 0.100E+01)
 search vector abs. value=  0.117E-01
 bond charge predicted
       N       E                     dE             d eps       ncg     rms          rms(c)
DAV:   1    -0.233798943217E+02   -0.83373E-02   -0.44133E+00   168   0.723E+00    0.567E-02
RMM:   2    -0.233816975606E+02   -0.18032E-02   -0.19369E-02   160   0.568E-01    0.450E-02
RMM:   3    -0.233816858441E+02    0.11716E-04   -0.41106E-04   161   0.736E-02    0.413E-02
RMM:   4    -0.233816227952E+02    0.63049E-04   -0.12829E-04   160   0.369E-02    0.140E-02
RMM:   5    -0.233816220288E+02    0.76637E-06   -0.76599E-05   157   0.293E-02
   2 F= -.23381622E+02 E0= -.23381622E+02  d E =-.100594E-01
 trial-energy change:   -0.010059  1 .order   -0.010143   -0.011667   -0.008619
 step:   3.8277(harm=  3.8277)  dis= 0.03650  next Energy=   -23.393891 (dE=-0.223E-01)
 bond charge predicted
       N       E                     dE             d eps       ncg     rms          rms(c)
DAV:   1    -0.233787109119E+02    0.29119E-02   -0.35348E+01   160   0.205E+01    0.160E-01
RMM:   2    -0.233933484795E+02   -0.14638E-01   -0.15619E-01   160   0.163E+00    0.129E-01
RMM:   3    -0.233932581652E+02    0.90314E-04   -0.32137E-03   160   0.208E-01    0.117E-01
RMM:   4    -0.233927609234E+02    0.49724E-03   -0.91186E-04   160   0.988E-02    0.444E-02
RMM:   5    -0.233927662005E+02   -0.52770E-05   -0.72103E-04   160   0.900E-02    0.298E-02
RMM:   6    -0.233927283249E+02    0.37876E-04   -0.95901E-05   160   0.315E-02    0.631E-03
RMM:   7    -0.233927313508E+02   -0.30258E-05   -0.82498E-06    91   0.991E-03
   3 F= -.23392731E+02 E0= -.23392731E+02  d E =-.211687E-01
 curvature:  -1.91 expect dE=-0.166E-01 dE for cont linesearch -0.614E-04
 trial: gam= 0.79745 g(F)=  0.869E-02 g(S)=  0.000E+00 ort =-0.612E-03 (trialstep = 0.121E+01)
 search vector abs. value=  0.151E-01
 bond charge predicted
       N       E                     dE             d eps       ncg     rms          rms(c)
DAV:   1    -0.233981867940E+02   -0.54585E-02   -0.83308E+00   160   0.985E+00    0.726E-02
RMM:   2    -0.234016063026E+02   -0.34195E-02   -0.35741E-02   160   0.752E-01    0.623E-02
RMM:   3    -0.234015846038E+02    0.21699E-04   -0.75673E-04   163   0.994E-02    0.586E-02
RMM:   4    -0.234014505887E+02    0.13402E-03   -0.24918E-04   160   0.509E-02    0.201E-02
RMM:   5    -0.234014596270E+02   -0.90383E-05   -0.19126E-04   160   0.449E-02    0.161E-02
RMM:   6    -0.234014513071E+02    0.83199E-05   -0.26634E-05    97   0.172E-02
   4 F= -.23401451E+02 E0= -.23401451E+02  d E =-.871996E-02
 trial-energy change:   -0.008720  1 .order   -0.008613   -0.009900   -0.007326
 step:   3.2590(harm=  4.6401)  dis= 0.03623  next Energy=   -23.408206 (dE=-0.155E-01)
 bond charge predicted
       N       E                     dE             d eps       ncg     rms          rms(c)
DAV:   1    -0.234007625557E+02    0.69707E-03   -0.24122E+01   160   0.168E+01    0.123E-01
RMM:   2    -0.234107388784E+02   -0.99763E-02   -0.10391E-01   160   0.129E+00    0.106E-01
RMM:   3    -0.234106748098E+02    0.64069E-04   -0.21852E-03   163   0.169E-01    0.993E-02
RMM:   4    -0.234102804011E+02    0.39441E-03   -0.68613E-04   160   0.846E-02    0.356E-02
RMM:   5    -0.234102945776E+02   -0.14177E-04   -0.58104E-04   160   0.783E-02    0.271E-02
RMM:   6    -0.234102673908E+02    0.27187E-04   -0.70509E-05   154   0.274E-02    0.547E-03
RMM:   7    -0.234102720621E+02   -0.46714E-05   -0.69193E-06    91   0.900E-03
   5 F= -.23410272E+02 E0= -.23410272E+02  d E =-.175407E-01
 curvature:  -3.59 expect dE=-0.127E-01 dE for cont linesearch -0.146E-02
 ZBRENT: increasing intervall
 opt :   7.3634  next Energy=   -23.405753 (dE=-0.130E-01)
 bond charge predicted
       N       E                     dE             d eps       ncg     rms          rms(c)
DAV:   1    -0.233672790313E+02    0.42988E-01   -0.96943E+01   160   0.338E+01    0.250E-01
RMM:   2    -0.234088235261E+02   -0.41544E-01   -0.43112E-01   160   0.269E+00    0.213E-01
RMM:   3    -0.234085159138E+02    0.30761E-03   -0.87817E-03   163   0.342E-01    0.198E-01
RMM:   4    -0.234070010801E+02    0.15148E-02   -0.22171E-03   160   0.155E-01    0.855E-02
RMM:   5    -0.234069194348E+02    0.81645E-04   -0.27168E-03   160   0.170E-01    0.479E-02
RMM:   6    -0.234068325198E+02    0.86915E-04   -0.20555E-04   160   0.471E-02    0.115E-02
RMM:   7    -0.234068445821E+02   -0.12062E-04   -0.31631E-05   102   0.196E-02    0.340E-03
RMM:   8    -0.234068539953E+02   -0.94133E-05   -0.37026E-06    91   0.912E-03
   6 F= -.23406854E+02 E0= -.23406854E+02  d E =-.141226E-01
 curvature:  11.08 expect dE= 0.112E+00 dE for cont linesearch  0.135E-01
 ZBRENT: bracketing found
 ZBRENT: interpolating
 opt :   4.7650  next Energy=   -23.412143 (dE=-0.194E-01)
 bond charge predicted
       N       E                     dE             d eps       ncg     rms          rms(c)
DAV:   1    -0.233963410122E+02    0.10504E-01   -0.38709E+01   160   0.212E+01    0.175E-01
RMM:   2    -0.234129404267E+02   -0.16599E-01   -0.17519E-01   160   0.170E+00    0.134E-01
RMM:   3    -0.234128478298E+02    0.92597E-04   -0.36611E-03   163   0.220E-01    0.125E-01
RMM:   4    -0.234123142716E+02    0.53356E-03   -0.76089E-04   160   0.918E-02    0.583E-02
RMM:   5    -0.234123008293E+02    0.13442E-04   -0.11209E-03   160   0.111E-01    0.291E-02
RMM:   6    -0.234122669248E+02    0.33904E-04   -0.74142E-05   156   0.294E-02    0.737E-03
RMM:   7    -0.234122690068E+02   -0.20819E-05   -0.60704E-06    91   0.829E-03
   7 F= -.23412269E+02 E0= -.23412269E+02  d E =-.195377E-01
 curvature:  -1.54 expect dE=-0.675E-02 dE for cont linesearch -0.109E-05
 trial: gam= 0.37360 g(F)=  0.438E-02 g(S)=  0.000E+00 ort = 0.103E-03 (trialstep = 0.192E+01)
 search vector abs. value=  0.657E-02
 bond charge predicted
       N       E                     dE             d eps       ncg     rms          rms(c)
DAV:   1    -0.234155897430E+02   -0.33228E-02   -0.91572E+00   160   0.104E+01    0.790E-02
RMM:   2    -0.234194231982E+02   -0.38335E-02   -0.39992E-02   160   0.794E-01    0.643E-02
RMM:   3    -0.234194058423E+02    0.17356E-04   -0.84472E-04   162   0.105E-01    0.602E-02
RMM:   4    -0.234192753600E+02    0.13048E-03   -0.26932E-04   160   0.531E-02    0.207E-02
RMM:   5    -0.234192923739E+02   -0.17014E-04   -0.19378E-04   160   0.458E-02    0.158E-02
RMM:   6    -0.234192815361E+02    0.10838E-04   -0.23852E-05    95   0.164E-02    0.368E-03
RMM:   7    -0.234192826275E+02   -0.10914E-05   -0.26784E-06    86   0.716E-03
   8 F= -.23419283E+02 E0= -.23419283E+02  d E =-.701362E-02
 trial-energy change:   -0.007014  1 .order   -0.006966   -0.008479   -0.005452
 step:   4.7183(harm=  5.3740)  dis= 0.03567  next Energy=   -23.423411 (dE=-0.111E-01)
 bond charge predicted
       N       E                     dE             d eps       ncg     rms          rms(c)
DAV:   1    -0.234160327027E+02    0.32488E-02   -0.19518E+01   160   0.151E+01    0.115E-01
RMM:   2    -0.234242682740E+02   -0.82356E-02   -0.85859E-02   160   0.117E+00    0.946E-02
RMM:   3    -0.234242205104E+02    0.47764E-04   -0.18078E-03   162   0.154E-01    0.887E-02
RMM:   4    -0.234239208099E+02    0.29970E-03   -0.55418E-04   160   0.763E-02    0.322E-02
RMM:   5    -0.234239431352E+02   -0.22325E-04   -0.44657E-04   160   0.696E-02    0.230E-02
RMM:   6    -0.234239236063E+02    0.19529E-04   -0.50803E-05   134   0.235E-02    0.520E-03
RMM:   7    -0.234239278408E+02   -0.42345E-05   -0.42582E-06    88   0.780E-03
   9 F= -.23423928E+02 E0= -.23423928E+02  d E =-.116588E-01
 curvature:  -3.85 expect dE=-0.841E-02 dE for cont linesearch -0.570E-04
 trial: gam= 0.42173 g(F)=  0.218E-02 g(S)=  0.000E+00 ort = 0.312E-03 (trialstep = 0.248E+01)
 search vector abs. value=  0.361E-02
 bond charge predicted
       N       E                     dE             d eps       ncg     rms          rms(c)
DAV:   1    -0.234249959519E+02   -0.10723E-02   -0.84039E+00   176   0.991E+00    0.742E-02
RMM:   2    -0.234285106933E+02   -0.35147E-02   -0.36633E-02   160   0.765E-01    0.632E-02
RMM:   3    -0.234284853860E+02    0.25307E-04   -0.75427E-04   160   0.999E-02    0.592E-02
RMM:   4    -0.234283485571E+02    0.13683E-03   -0.27238E-04   160   0.535E-02    0.196E-02
RMM:   5    -0.234283608036E+02   -0.12246E-04   -0.17852E-04   160   0.437E-02    0.151E-02
RMM:   6    -0.234283529823E+02    0.78213E-05   -0.22746E-05    96   0.159E-02
  10 F= -.23428353E+02 E0= -.23428353E+02  d E =-.442514E-02
 trial-energy change:   -0.004425  1 .order   -0.004376   -0.005735   -0.003018
 step:   4.7591(harm=  5.2301)  dis= 0.02453  next Energy=   -23.429779 (dE=-0.585E-02)
 bond charge predicted
       N       E                     dE             d eps       ncg     rms          rms(c)
DAV:   1    -0.234274582435E+02    0.90256E-03   -0.71167E+00   160   0.912E+00    0.687E-02
RMM:   2    -0.234304333206E+02   -0.29751E-02   -0.31020E-02   160   0.704E-01    0.580E-02
RMM:   3    -0.234304124763E+02    0.20844E-04   -0.63878E-04   161   0.918E-02    0.543E-02
RMM:   4    -0.234302975966E+02    0.11488E-03   -0.23246E-04   160   0.494E-02    0.177E-02
RMM:   5    -0.234303082885E+02   -0.10692E-04   -0.14755E-04   160   0.398E-02    0.140E-02
RMM:   6    -0.234303014158E+02    0.68727E-05   -0.19282E-05    91   0.147E-02
  11 F= -.23430301E+02 E0= -.23430301E+02  d E =-.637357E-02
 curvature:  -3.96 expect dE=-0.668E-02 dE for cont linesearch -0.122E-03
 trial: gam= 0.69572 g(F)=  0.168E-02 g(S)=  0.000E+00 ort = 0.333E-03 (trialstep = 0.272E+01)
 search vector abs. value=  0.390E-02
 bond charge predicted
       N       E                     dE             d eps       ncg     rms          rms(c)
DAV:   1    -0.234301193613E+02    0.18893E-03   -0.10931E+01   160   0.113E+01    0.786E-02
RMM:   2    -0.234346670715E+02   -0.45477E-02   -0.46810E-02   160   0.861E-01    0.723E-02
RMM:   3    -0.234346333318E+02    0.33740E-04   -0.96261E-04   161   0.112E-01    0.685E-02
RMM:   4    -0.234344404254E+02    0.19291E-03   -0.36725E-04   160   0.607E-02    0.225E-02
RMM:   5    -0.234344521765E+02   -0.11751E-04   -0.26578E-04   160   0.525E-02    0.197E-02
RMM:   6    -0.234344370030E+02    0.15173E-04   -0.33779E-05   106   0.191E-02    0.480E-03
RMM:   7    -0.234344387732E+02   -0.17702E-05   -0.64158E-06    88   0.960E-03
  12 F= -.23434439E+02 E0= -.23434439E+02  d E =-.413736E-02
 trial-energy change:   -0.004137  1 .order   -0.003987   -0.005215   -0.002758
 step:   4.6044(harm=  5.7759)  dis= 0.02513  next Energy=   -23.435443 (dE=-0.514E-02)
 bond charge predicted
       N       E                     dE             d eps       ncg     rms          rms(c)
DAV:   1    -0.234339179955E+02    0.51901E-03   -0.52345E+00   160   0.780E+00    0.535E-02
RMM:   2    -0.234360856716E+02   -0.21677E-02   -0.22330E-02   160   0.592E-01    0.504E-02
RMM:   3    -0.234360684324E+02    0.17239E-04   -0.46236E-04   161   0.778E-02    0.479E-02
RMM:   4    -0.234359739733E+02    0.94459E-04   -0.18166E-04   160   0.426E-02    0.155E-02
RMM:   5    -0.234359800610E+02   -0.60876E-05   -0.13058E-04   160   0.367E-02    0.141E-02
RMM:   6    -0.234359727498E+02    0.73111E-05   -0.17496E-05    89   0.138E-02
  13 F= -.23435973E+02 E0= -.23435973E+02  d E =-.567133E-02
 curvature:  -5.01 expect dE=-0.571E-02 dE for cont linesearch -0.236E-03
 ZBRENT: increasing intervall
 opt :   8.3710  next Energy=   -23.435386 (dE=-0.508E-02)
 bond charge predicted
       N       E                     dE             d eps       ncg     rms          rms(c)
DAV:   1    -0.234273813973E+02    0.85987E-02   -0.20962E+01   160   0.156E+01    0.109E-01
RMM:   2    -0.234361490014E+02   -0.87676E-02   -0.90147E-02   160   0.120E+00    0.101E-01
RMM:   3    -0.234360813419E+02    0.67659E-04   -0.18423E-03   161   0.156E-01    0.953E-02
RMM:   4    -0.234357091428E+02    0.37220E-03   -0.66380E-04   160   0.817E-02    0.334E-02
RMM:   5    -0.234357231897E+02   -0.14047E-04   -0.54802E-04   160   0.755E-02    0.269E-02
RMM:   6    -0.234356943189E+02    0.28871E-04   -0.62800E-05   149   0.255E-02    0.651E-03
RMM:   7    -0.234356970193E+02   -0.27004E-05   -0.11486E-05    92   0.115E-02
  14 F= -.23435697E+02 E0= -.23435697E+02  d E =-.539560E-02
 curvature:  12.42 expect dE= 0.522E-01 dE for cont linesearch  0.167E-02
 ZBRENT: bracketing found
 ZBRENT: interpolating
 opt :   6.0053  next Energy=   -23.436273 (dE=-0.597E-02)
 bond charge predicted
       N       E                     dE             d eps       ncg     rms          rms(c)
DAV:   1    -0.234330570006E+02    0.26373E-02   -0.82589E+00   160   0.979E+00    0.719E-02
RMM:   2    -0.234365282652E+02   -0.34713E-02   -0.35861E-02   160   0.750E-01    0.622E-02
RMM:   3    -0.234365071278E+02    0.21137E-04   -0.73584E-04   160   0.984E-02    0.586E-02
RMM:   4    -0.234363798502E+02    0.12728E-03   -0.24804E-04   160   0.506E-02    0.208E-02
RMM:   5    -0.234363945163E+02   -0.14666E-04   -0.19793E-04   160   0.457E-02    0.155E-02
RMM:   6    -0.234363840478E+02    0.10469E-04   -0.23239E-05    93   0.160E-02    0.331E-03
RMM:   7    -0.234363848143E+02   -0.76655E-06   -0.24287E-06    86   0.653E-03
  15 F= -.23436385E+02 E0= -.23436385E+02  d E =-.608340E-02
 curvature:  -2.23 expect dE=-0.449E-02 dE for cont linesearch -0.103E-04
 trial: gam= 1.39466 g(F)=  0.201E-02 g(S)=  0.000E+00 ort = 0.134E-03 (trialstep = 0.132E+01)
 search vector abs. value=  0.997E-02
 bond charge predicted
       N       E                     dE             d eps       ncg     rms          rms(c)
DAV:   1    -0.234363629367E+02    0.21111E-04   -0.65748E+00   160   0.868E+00    0.592E-02
RMM:   2    -0.234390797472E+02   -0.27168E-02   -0.27601E-02   160   0.652E-01    0.549E-02
RMM:   3    -0.234390593843E+02    0.20363E-04   -0.56912E-04   162   0.858E-02    0.523E-02
RMM:   4    -0.234389432020E+02    0.11618E-03   -0.21215E-04   160   0.459E-02    0.174E-02
RMM:   5    -0.234389511867E+02   -0.79848E-05   -0.17021E-04   160   0.415E-02    0.149E-02
RMM:   6    -0.234389423313E+02    0.88554E-05   -0.20276E-05    90   0.149E-02
  16 F= -.23438942E+02 E0= -.23438942E+02  d E =-.255752E-02
 trial-energy change:   -0.002558  1 .order   -0.002491   -0.002903   -0.002079
 step:   2.9293(harm=  4.6543)  dis= 0.02905  next Energy=   -23.440328 (dE=-0.394E-02)
 bond charge predicted
       N       E                     dE             d eps       ncg     rms          rms(c)
DAV:   1    -0.234377335914E+02    0.12176E-02   -0.97469E+00   160   0.106E+01    0.715E-02
RMM:   2    -0.234417696646E+02   -0.40361E-02   -0.40985E-02   160   0.796E-01    0.674E-02
RMM:   3    -0.234417376326E+02    0.32032E-04   -0.84444E-04   162   0.104E-01    0.643E-02
RMM:   4    -0.234415609295E+02    0.17670E-03   -0.30844E-04   160   0.554E-02    0.221E-02
RMM:   5    -0.234415708446E+02   -0.99151E-05   -0.26974E-04   160   0.523E-02    0.184E-02
RMM:   6    -0.234415586455E+02    0.12199E-04   -0.30445E-05   105   0.182E-02    0.334E-03
RMM:   7    -0.234415597887E+02   -0.11432E-05   -0.29412E-06    85   0.697E-03
  17 F= -.23441560E+02 E0= -.23441560E+02  d E =-.517497E-02
 curvature:  -7.73 expect dE=-0.118E-01 dE for cont linesearch -0.164E-02
 ZBRENT: increasing intervall
 opt :   6.1456  next Energy=   -23.445848 (dE=-0.946E-02)
 bond charge predicted
       N       E                     dE             d eps       ncg     rms          rms(c)
DAV:   1    -0.234300257244E+02    0.11533E-01   -0.39086E+01   160   0.212E+01    0.148E-01
RMM:   2    -0.234466140649E+02   -0.16588E-01   -0.16860E-01   160   0.164E+00    0.137E-01
RMM:   3    -0.234464689996E+02    0.14507E-03   -0.34391E-03   162   0.212E-01    0.130E-01
RMM:   4    -0.234457770226E+02    0.69198E-03   -0.97141E-04   160   0.998E-02    0.558E-02
RMM:   5    -0.234457480779E+02    0.28945E-04   -0.13437E-03   160   0.118E-01    0.339E-02
RMM:   6    -0.234457089407E+02    0.39137E-04   -0.85905E-05   151   0.307E-02    0.835E-03
RMM:   7    -0.234457111820E+02   -0.22413E-05   -0.10775E-05    91   0.114E-02
  18 F= -.23445711E+02 E0= -.23445711E+02  d E =-.932637E-02
 curvature: -20.23 expect dE=-0.368E-01 dE for cont linesearch -0.151E-02
 ZBRENT: increasing intervall
 opt :  12.5782  next Energy=   -23.447470 (dE=-0.111E-01)
 bond charge predicted
       N       E                     dE             d eps       ncg     rms          rms(c)
DAV:   1    -0.233782580675E+02    0.67451E-01   -0.15798E+02   160   0.430E+01    0.337E-01
RMM:   2    -0.234513444911E+02   -0.73086E-01   -0.74868E-01   160   0.369E+00    0.287E-01
RMM:   3    -0.234504862369E+02    0.85825E-03   -0.14535E-02   160   0.442E-01    0.265E-01
RMM:   4    -0.234482082736E+02    0.22780E-02   -0.22835E-03   160   0.162E-01    0.159E-01
RMM:   5    -0.234473816588E+02    0.82661E-03   -0.72164E-03   160   0.277E-01    0.490E-02
RMM:   6    -0.234473407528E+02    0.40906E-04   -0.10794E-04   153   0.478E-02    0.313E-02
RMM:   7    -0.234473278810E+02    0.12872E-04   -0.12694E-04   160   0.394E-02    0.573E-03
RMM:   8    -0.234473424222E+02   -0.14541E-04   -0.60861E-06    93   0.110E-02    0.205E-03
RMM:   9    -0.234473597143E+02   -0.17292E-04   -0.37894E-06    94   0.616E-03    0.204E-03
RMM:  10    -0.234473694109E+02   -0.96967E-05   -0.44203E-07    49   0.277E-03
  19 F= -.23447369E+02 E0= -.23447369E+02  d E =-.109846E-01
 curvature: -23.51 expect dE=-0.118E+00 dE for cont linesearch -0.478E-03
 trial: gam= 2.17536 g(F)=  0.503E-02 g(S)=  0.000E+00 ort =-0.450E-03 (trialstep = 0.709E+00)
 search vector abs. value=  0.502E-01
 bond charge predicted
       N       E                     dE             d eps       ncg     rms          rms(c)
DAV:   1    -0.234463528896E+02    0.10068E-02   -0.95472E+00   160   0.104E+01    0.726E-02
RMM:   2    -0.234503129717E+02   -0.39601E-02   -0.40256E-02   160   0.785E-01    0.650E-02
RMM:   3    -0.234502859244E+02    0.27047E-04   -0.82952E-04   161   0.103E-01    0.618E-02
RMM:   4    -0.234501255314E+02    0.16039E-03   -0.28079E-04   160   0.527E-02    0.218E-02
RMM:   5    -0.234501362867E+02   -0.10755E-04   -0.24714E-04   160   0.499E-02    0.167E-02
RMM:   6    -0.234501279828E+02    0.83039E-05   -0.27608E-05   102   0.172E-02
  20 F= -.23450128E+02 E0= -.23450128E+02  d E =-.275857E-02
 ZBRENT: can't locate minimum, use default step
 trial-energy change:   -0.002759  1 .order   -0.002611   -0.002873   -0.002349
 step:   2.8349(harm=  3.8829)  dis= 0.06653  next Energy=   -23.455240 (dE=-0.787E-02)
 bond charge predicted
       N       E                     dE             d eps       ncg     rms          rms(c)
DAV:   1    -0.234197630810E+02    0.30373E-01   -0.86560E+01   160   0.315E+01    0.240E-01
RMM:   2    -0.234581825783E+02   -0.38419E-01   -0.39326E-01   160   0.259E+00    0.206E-01
RMM:   3    -0.234577997248E+02    0.38285E-03   -0.78775E-03   160   0.322E-01    0.193E-01
RMM:   4    -0.234565162610E+02    0.12835E-02   -0.13847E-03   160   0.123E-01    0.108E-01
RMM:   5    -0.234561915684E+02    0.32469E-03   -0.37566E-03   160   0.199E-01    0.415E-02
RMM:   6    -0.234561441577E+02    0.47411E-04   -0.82489E-05   145   0.361E-02    0.199E-02
RMM:   7    -0.234561407591E+02    0.33986E-05   -0.47443E-05   125   0.241E-02
  21 F= -.23456141E+02 E0= -.23456141E+02  d E =-.877135E-02
 curvature: -21.44 expect dE=-0.703E-01 dE for cont linesearch -0.108E-02
 ZBRENT: increasing intervall
 opt :   7.0874  next Energy=   -23.455598 (dE=-0.823E-02)
 bond charge predicted
       N       E                     dE             d eps       ncg     rms          rms(c)
DAV:   1    -0.232798688891E+02    0.17628E+00   -0.35498E+02   160   0.650E+01    0.588E-01
RMM:   2    -0.234671644499E+02   -0.18730E+00   -0.19455E+00   160   0.639E+00    0.453E-01
RMM:   3    -0.234645760448E+02    0.25884E-02   -0.35897E-02   160   0.705E-01    0.403E-01
RMM:   4    -0.234607268713E+02    0.38492E-02   -0.34782E-03   160   0.220E-01    0.289E-01
RMM:   5    -0.234575593162E+02    0.31676E-02   -0.15822E-02   160   0.416E-01    0.423E-02
RMM:   6    -0.234576881131E+02   -0.12880E-03   -0.67019E-04   160   0.121E-01    0.489E-02
RMM:   7    -0.234576541595E+02    0.33954E-04   -0.24407E-04   160   0.539E-02    0.104E-02
RMM:   8    -0.234576782412E+02   -0.24082E-04   -0.11833E-05    95   0.156E-02    0.402E-03
RMM:   9    -0.234577105023E+02   -0.32261E-04   -0.73007E-06    96   0.716E-03    0.177E-03
RMM:  10    -0.234577301333E+02   -0.19631E-04   -0.13670E-06    82   0.393E-03    0.120E-03
RMM:  11    -0.234577613886E+02   -0.31255E-04   -0.24890E-06    39   0.261E-03    0.509E-04
RMM:  12    -0.234577742167E+02   -0.12828E-04   -0.76431E-07    38   0.252E-03    0.437E-04
RMM:  13    -0.234577923247E+02   -0.18108E-04   -0.17782E-06    47   0.282E-03    0.267E-04
RMM:  14    -0.234577957057E+02   -0.33810E-05   -0.43308E-08    27   0.218E-03
  22 F= -.23457796E+02 E0= -.23457796E+02  d E =-.104263E-01
 curvature:  10.73 expect dE= 0.863E-01 dE for cont linesearch  0.551E-03
 ZBRENT: bracketing found
 ZBRENT: interpolating
 opt :   4.9530  next Energy=   -23.457828 (dE=-0.105E-01)
 bond charge predicted
       N       E                     dE             d eps       ncg     rms          rms(c)
DAV:   1    -0.234220441603E+02    0.35748E-01   -0.87244E+01   160   0.317E+01    0.243E-01
RMM:   2    -0.234606492352E+02   -0.38605E-01   -0.39513E-01   160   0.259E+00    0.205E-01
RMM:   3    -0.234602528859E+02    0.39635E-03   -0.78483E-03   160   0.322E-01    0.190E-01
RMM:   4    -0.234589677335E+02    0.12852E-02   -0.14223E-03   160   0.125E-01    0.105E-01
RMM:   5    -0.234586543141E+02    0.31342E-03   -0.35604E-03   160   0.193E-01    0.400E-02
RMM:   6    -0.234586053060E+02    0.49008E-04   -0.86040E-05   149   0.353E-02    0.175E-02
RMM:   7    -0.234586028150E+02    0.24910E-05   -0.42881E-05   117   0.227E-02
  23 F= -.23458603E+02 E0= -.23458603E+02  d E =-.112334E-01
 curvature: -32.88 expect dE=-0.151E+00 dE for cont linesearch -0.436E-03
 trial: gam= 0.48794 g(F)=  0.459E-02 g(S)=  0.000E+00 ort = 0.816E-03 (trialstep = 0.156E+01)
 search vector abs. value=  0.173E-01
 bond charge predicted
       N       E                     dE             d eps       ncg     rms          rms(c)
DAV:   1    -0.234591501689E+02   -0.54486E-03   -0.15934E+01   160   0.135E+01    0.980E-02
RMM:   2    -0.234657851269E+02   -0.66350E-02   -0.68277E-02   160   0.104E+00    0.842E-02
RMM:   3    -0.234657432143E+02    0.41913E-04   -0.14015E-03   161   0.135E-01    0.794E-02
RMM:   4    -0.234655002960E+02    0.24292E-03   -0.39677E-04   160   0.640E-02    0.317E-02
RMM:   5    -0.234655081767E+02   -0.78806E-05   -0.43679E-04   160   0.675E-02    0.207E-02
RMM:   6    -0.234654904875E+02    0.17689E-04   -0.38748E-05   112   0.205E-02    0.452E-03
RMM:   7    -0.234654915949E+02   -0.11073E-05   -0.43238E-06    88   0.806E-03
  24 F= -.23465492E+02 E0= -.23465492E+02  d E =-.688878E-02
 trial-energy change:   -0.006889  1 .order   -0.006680   -0.007772   -0.005587
 step:   3.3415(harm=  5.5405)  dis= 0.04611  next Energy=   -23.469005 (dE=-0.104E-01)
 bond charge predicted
       N       E                     dE             d eps       ncg     rms          rms(c)
DAV:   1    -0.234626893723E+02    0.28011E-02   -0.20915E+01   160   0.155E+01    0.113E-01
RMM:   2    -0.234714349373E+02   -0.87456E-02   -0.90127E-02   160   0.120E+00    0.974E-02
RMM:   3    -0.234713720151E+02    0.62922E-04   -0.18516E-03   161   0.155E-01    0.919E-02
RMM:   4    -0.234710456160E+02    0.32640E-03   -0.48473E-04   160   0.710E-02    0.392E-02
RMM:   5    -0.234710379213E+02    0.76947E-05   -0.62961E-04   160   0.813E-02    0.238E-02
RMM:   6    -0.234710157307E+02    0.22191E-04   -0.49463E-05   130   0.231E-02    0.547E-03
RMM:   7    -0.234710171574E+02   -0.14267E-05   -0.53700E-06    87   0.846E-03
  25 F= -.23471017E+02 E0= -.23471017E+02  d E =-.124143E-01
 curvature:  -6.70 expect dE=-0.138E-01 dE for cont linesearch -0.230E-02
 ZBRENT: increasing intervall
 opt :   6.9092  next Energy=   -23.475621 (dE=-0.170E-01)
 bond charge predicted
       N       E                     dE             d eps       ncg     rms          rms(c)
DAV:   1    -0.234400886427E+02    0.30927E-01   -0.84208E+01   160   0.313E+01    0.254E-01
RMM:   2    -0.234774157263E+02   -0.37327E-01   -0.38900E-01   160   0.261E+00    0.203E-01
RMM:   3    -0.234770630442E+02    0.35268E-03   -0.78377E-03   160   0.323E-01    0.188E-01
RMM:   4    -0.234759892883E+02    0.10738E-02   -0.10898E-03   160   0.111E-01    0.114E-01
RMM:   5    -0.234756273248E+02    0.36196E-03   -0.36649E-03   160   0.200E-01    0.383E-02
RMM:   6    -0.234755828238E+02    0.44501E-04   -0.72179E-05   146   0.359E-02    0.206E-02
RMM:   7    -0.234755774541E+02    0.53697E-05   -0.52148E-05   131   0.254E-02
  26 F= -.23475577E+02 E0= -.23475577E+02  d E =-.169746E-01
 curvature: -13.43 expect dE=-0.552E-01 dE for cont linesearch -0.264E-05
 trial: gam= 0.93543 g(F)=  0.411E-02 g(S)=  0.000E+00 ort = 0.584E-04 (trialstep = 0.235E+01)
 search vector abs. value=  0.194E-01
 bond charge predicted
       N       E                     dE             d eps       ncg     rms          rms(c)
DAV:   1    -0.234671356243E+02    0.84472E-02   -0.40686E+01   160   0.217E+01    0.174E-01
RMM:   2    -0.234845889839E+02   -0.17453E-01   -0.18237E-01   160   0.175E+00    0.138E-01
RMM:   3    -0.234844431880E+02    0.14580E-03   -0.37353E-03   161   0.221E-01    0.128E-01
RMM:   4    -0.234839173102E+02    0.52588E-03   -0.56229E-04   160   0.787E-02    0.736E-02
RMM:   5    -0.234837993313E+02    0.11798E-03   -0.16241E-03   160   0.133E-01    0.285E-02
RMM:   6    -0.234837747959E+02    0.24535E-04   -0.54729E-05   132   0.275E-02    0.106E-02
RMM:   7    -0.234837795524E+02   -0.47565E-05   -0.12030E-05    91   0.134E-02
  27 F= -.23483780E+02 E0= -.23483780E+02  d E =-.820210E-02
 trial-energy change:   -0.008202  1 .order   -0.007675   -0.009790   -0.005561
 step:   3.7579(harm=  5.4403)  dis= 0.05077  next Energy=   -23.485559 (dE=-0.998E-02)
 bond charge predicted
       N       E                     dE             d eps       ncg     rms          rms(c)
DAV:   1    -0.234804758754E+02    0.32989E-02   -0.14562E+01   160   0.130E+01    0.963E-02
RMM:   2    -0.234865295201E+02   -0.60536E-02   -0.62794E-02   160   0.100E+00    0.812E-02
RMM:   3    -0.234864873462E+02    0.42174E-04   -0.12937E-03   161   0.130E-01    0.764E-02
RMM:   4    -0.234862747073E+02    0.21264E-03   -0.30198E-04   160   0.564E-02    0.347E-02
RMM:   5    -0.234862723854E+02    0.23218E-05   -0.44221E-04   160   0.686E-02    0.189E-02
RMM:   6    -0.234862630836E+02    0.93018E-05   -0.36103E-05   112   0.200E-02
  28 F= -.23486263E+02 E0= -.23486263E+02  d E =-.106856E-01
 curvature:  -8.91 expect dE=-0.271E-01 dE for cont linesearch -0.201E-03
 ZBRENT: extrapolating
 opt :   4.3045  next Energy=   -23.486444 (dE=-0.109E-01)
 bond charge predicted
       N       E                     dE             d eps       ncg     rms          rms(c)
DAV:   1    -0.234856347481E+02    0.63764E-03   -0.21922E+00   176   0.503E+00    0.362E-02
RMM:   2    -0.234865340741E+02   -0.89933E-03   -0.92749E-03   160   0.381E-01    0.308E-02
RMM:   3    -0.234865304154E+02    0.36586E-05   -0.19166E-04   160   0.496E-02    0.290E-02
RMM:   4    -0.234865018157E+02    0.28600E-04   -0.58165E-05   140   0.246E-02    0.105E-02
RMM:   5    -0.234865104945E+02   -0.86789E-05   -0.51396E-05   134   0.237E-02
  29 F= -.23486510E+02 E0= -.23486510E+02  d E =-.109330E-01
 curvature:  -8.01 expect dE=-0.288E-01 dE for cont linesearch -0.404E-04
 trial: gam= 0.56484 g(F)=  0.360E-02 g(S)=  0.000E+00 ort = 0.313E-03 (trialstep = 0.274E+01)
 search vector abs. value=  0.101E-01
 bond charge predicted
       N       E                     dE             d eps       ncg     rms          rms(c)
DAV:   1    -0.234813307449E+02    0.51711E-02   -0.28901E+01   160   0.184E+01    0.140E-01
RMM:   2    -0.234936104224E+02   -0.12280E-01   -0.12808E-01   160   0.146E+00    0.116E-01
RMM:   3    -0.234935282427E+02    0.82180E-04   -0.26489E-03   162   0.187E-01    0.109E-01
RMM:   4    -0.234930979166E+02    0.43033E-03   -0.63029E-04   160   0.817E-02    0.494E-02
RMM:   5    -0.234930815790E+02    0.16338E-04   -0.85709E-04   160   0.961E-02    0.264E-02
RMM:   6    -0.234930545028E+02    0.27076E-04   -0.72693E-05   155   0.277E-02    0.541E-03
RMM:   7    -0.234930595879E+02   -0.50851E-05   -0.52347E-06    91   0.778E-03
  30 F= -.23493060E+02 E0= -.23493060E+02  d E =-.654909E-02
 trial-energy change:   -0.006549  1 .order   -0.006523   -0.010340   -0.002706
 step:   3.7124(harm=  3.7124)  dis= 0.03014  next Energy=   -23.493513 (dE=-0.700E-02)
 bond charge predicted
       N       E                     dE             d eps       ncg     rms          rms(c)
DAV:   1    -0.234922156998E+02    0.83880E-03   -0.36261E+00   160   0.651E+00    0.470E-02
RMM:   2    -0.234937227512E+02   -0.15071E-02   -0.15664E-02   160   0.502E-01    0.409E-02
RMM:   3    -0.234937141683E+02    0.85829E-05   -0.32708E-04   162   0.654E-02    0.388E-02
RMM:   4    -0.234936603448E+02    0.53824E-04   -0.10438E-04   160   0.327E-02    0.143E-02
RMM:   5    -0.234936686373E+02   -0.82925E-05   -0.87675E-05   158   0.303E-02
  31 F= -.23493669E+02 E0= -.23493669E+02  d E =-.715814E-02
 curvature:  -4.99 expect dE=-0.726E-02 dE for cont linesearch -0.117E-04
 trial: gam= 0.33622 g(F)=  0.146E-02 g(S)=  0.000E+00 ort = 0.154E-03 (trialstep = 0.294E+01)
 search vector abs. value=  0.271E-02
 bond charge predicted
       N       E                     dE             d eps       ncg     rms          rms(c)
DAV:   1    -0.234926947500E+02    0.96559E-03   -0.88195E+00   160   0.102E+01    0.772E-02
RMM:   2    -0.234963776828E+02   -0.36829E-02   -0.38735E-02   160   0.799E-01    0.632E-02
RMM:   3    -0.234963569871E+02    0.20696E-04   -0.82232E-04   164   0.104E-01    0.597E-02
RMM:   4    -0.234962271476E+02    0.12984E-03   -0.20730E-04   160   0.470E-02    0.252E-02
RMM:   5    -0.234962290167E+02   -0.18691E-05   -0.23718E-04   160   0.504E-02    0.145E-02
RMM:   6    -0.234962227340E+02    0.62828E-05   -0.20585E-05    93   0.154E-02
  32 F= -.23496223E+02 E0= -.23496223E+02  d E =-.255410E-02
 trial-energy change:   -0.002554  1 .order   -0.002503   -0.004426   -0.000580
 step:   3.3406(harm=  3.3774)  dis= 0.01305  next Energy=   -23.496263 (dE=-0.259E-02)
 bond charge predicted
       N       E                     dE             d eps       ncg     rms          rms(c)
DAV:   1    -0.234962188225E+02    0.10194E-04   -0.16835E-01   176   0.141E+00    0.105E-02
RMM:   2    -0.234962901786E+02   -0.71356E-04   -0.73129E-04   160   0.109E-01    0.883E-03
RMM:   3    -0.234962905746E+02   -0.39600E-06   -0.12783E-05    84   0.142E-02
  33 F= -.23496291E+02 E0= -.23496291E+02  d E =-.262194E-02
 curvature:  -3.01 expect dE=-0.202E-02 dE for cont linesearch -0.921E-06
 trial: gam= 0.41477 g(F)=  0.672E-03 g(S)=  0.000E+00 ort =-0.288E-04 (trialstep = 0.302E+01)
 search vector abs. value=  0.111E-02
 bond charge predicted
       N       E                     dE             d eps       ncg     rms          rms(c)
DAV:   1    -0.234961027611E+02    0.18742E-03   -0.38366E+00   160   0.673E+00    0.515E-02
RMM:   2    -0.234976949916E+02   -0.15922E-02   -0.16795E-02   160   0.522E-01    0.434E-02
RMM:   3    -0.234976807960E+02    0.14196E-04   -0.35526E-04   162   0.688E-02    0.408E-02
RMM:   4    -0.234976173885E+02    0.63407E-04   -0.12016E-04   160   0.358E-02    0.145E-02
RMM:   5    -0.234976212763E+02   -0.38878E-05   -0.89457E-05   160   0.309E-02
  34 F= -.23497621E+02 E0= -.23497621E+02  d E =-.133070E-02
 trial-energy change:   -0.001331  1 .order   -0.001370   -0.001992   -0.000748
 step:   4.8312(harm=  4.8312)  dis= 0.01102  next Energy=   -23.497886 (dE=-0.160E-02)
 bond charge predicted
       N       E                     dE             d eps       ncg     rms          rms(c)
DAV:   1    -0.234972679852E+02    0.34940E-03   -0.13863E+00   160   0.404E+00    0.319E-02
RMM:   2    -0.234978456198E+02   -0.57763E-03   -0.61206E-03   160   0.314E-01    0.256E-02
RMM:   3    -0.234978411492E+02    0.44706E-05   -0.12973E-04   160   0.416E-02    0.239E-02
RMM:   4    -0.234978202544E+02    0.20895E-04   -0.42757E-05   118   0.217E-02    0.827E-03
RMM:   5    -0.234978235733E+02   -0.33189E-05   -0.30994E-05    96   0.193E-02
  35 F= -.23497824E+02 E0= -.23497824E+02  d E =-.153300E-02
 curvature:  -4.07 expect dE=-0.253E-02 dE for cont linesearch -0.409E-05
 trial: gam= 0.91005 g(F)=  0.622E-03 g(S)=  0.000E+00 ort = 0.334E-04 (trialstep = 0.235E+01)
 search vector abs. value=  0.161E-02
 bond charge predicted
       N       E                     dE             d eps       ncg     rms          rms(c)
DAV:   1    -0.234974131555E+02    0.40710E-03   -0.33368E+00   160   0.626E+00    0.458E-02
RMM:   2    -0.234988237717E+02   -0.14106E-02   -0.14586E-02   160   0.481E-01    0.393E-02
RMM:   3    -0.234988154450E+02    0.83267E-05   -0.30888E-04   162   0.636E-02    0.373E-02
RMM:   4    -0.234987625434E+02    0.52902E-04   -0.91030E-05   160   0.308E-02    0.141E-02
RMM:   5    -0.234987663519E+02   -0.38086E-05   -0.90919E-05   160   0.311E-02
  36 F= -.23498766E+02 E0= -.23498766E+02  d E =-.942779E-03
 trial-energy change:   -0.000943  1 .order   -0.001046   -0.001529   -0.000562
 step:   3.7072(harm=  3.7072)  dis= 0.00831  next Energy=   -23.499032 (dE=-0.121E-02)
 bond charge predicted
       N       E                     dE             d eps       ncg     rms          rms(c)
DAV:   1    -0.234985174764E+02    0.24507E-03   -0.11237E+00   176   0.363E+00    0.266E-02
RMM:   2    -0.234989934366E+02   -0.47596E-03   -0.49233E-03   160   0.279E-01    0.229E-02
RMM:   3    -0.234989906269E+02    0.28097E-05   -0.10452E-04   157   0.371E-02    0.217E-02
RMM:   4    -0.234989733806E+02    0.17246E-04   -0.30592E-05   101   0.184E-02    0.816E-03
RMM:   5    -0.234989766831E+02   -0.33025E-05   -0.32209E-05    98   0.196E-02
  37 F= -.23498977E+02 E0= -.23498977E+02  d E =-.115311E-02
 curvature:  -4.56 expect dE=-0.141E-02 dE for cont linesearch -0.971E-04
 ZBRENT: increasing intervall
 opt :   6.4306  next Energy=   -23.499331 (dE=-0.151E-02)
 bond charge predicted
       N       E                     dE             d eps       ncg     rms          rms(c)
DAV:   1    -0.234968975452E+02    0.20758E-02   -0.44996E+00   160   0.727E+00    0.538E-02
RMM:   2    -0.234988019648E+02   -0.19044E-02   -0.19727E-02   160   0.560E-01    0.453E-02
RMM:   3    -0.234987908349E+02    0.11130E-04   -0.41776E-04   162   0.740E-02    0.429E-02
RMM:   4    -0.234987192555E+02    0.71579E-04   -0.12171E-04   160   0.356E-02    0.162E-02
RMM:   5    -0.234987226324E+02   -0.33769E-05   -0.11841E-04   160   0.356E-02    0.118E-02
RMM:   6    -0.234987190776E+02    0.35548E-05   -0.13586E-05    89   0.124E-02
  38 F= -.23498719E+02 E0= -.23498719E+02  d E =-.895504E-03
 curvature: -16.65 expect dE=-0.125E-01 dE for cont linesearch -0.945E-03
 ZBRENT: bracketing found
 ZBRENT: interpolating
 opt :   4.7415  next Energy=   -23.499072 (dE=-0.125E-02)
 bond charge predicted
       N       E                     dE             d eps       ncg     rms          rms(c)
DAV:   1    -0.234983126327E+02    0.41000E-03   -0.17314E+00   160   0.451E+00    0.316E-02
RMM:   2    -0.234990467032E+02   -0.73407E-03   -0.75319E-03   160   0.346E-01    0.290E-02
RMM:   3    -0.234990437421E+02    0.29611E-05   -0.16122E-04   162   0.460E-02    0.278E-02
RMM:   4    -0.234990181755E+02    0.25567E-04   -0.44718E-05   123   0.220E-02    0.113E-02
RMM:   5    -0.234990233098E+02   -0.51343E-05   -0.58389E-05   153   0.254E-02
  39 F= -.23499023E+02 E0= -.23499023E+02  d E =-.119974E-02
 curvature:  -1.68 expect dE=-0.674E-03 dE for cont linesearch -0.439E-05
 trial: gam= 0.56436 g(F)=  0.400E-03 g(S)=  0.000E+00 ort =-0.647E-04 (trialstep = 0.282E+01)
 search vector abs. value=  0.839E-03
 bond charge predicted
       N       E                     dE             d eps       ncg     rms          rms(c)
DAV:   1    -0.234987963747E+02    0.22180E-03   -0.25315E+00   160   0.544E+00    0.367E-02
RMM:   2    -0.234998547924E+02   -0.10584E-02   -0.10851E-02   160   0.413E-01    0.353E-02
RMM:   3    -0.234998471810E+02    0.76114E-05   -0.22993E-04   163   0.548E-02    0.338E-02
RMM:   4    -0.234998030354E+02    0.44146E-04   -0.75064E-05   156   0.278E-02    0.128E-02
RMM:   5    -0.234998064100E+02   -0.33746E-05   -0.79998E-05   155   0.291E-02
  40 F= -.23499806E+02 E0= -.23499806E+02  d E =-.783100E-03
 trial-energy change:   -0.000783  1 .order   -0.000795   -0.001028   -0.000562
 step:   6.2284(harm=  6.2284)  dis= 0.01447  next Energy=   -23.500157 (dE=-0.113E-02)
 bond charge predicted
       N       E                     dE             d eps       ncg     rms          rms(c)
DAV:   1    -0.234985752944E+02    0.12277E-02   -0.36714E+00   160   0.654E+00    0.474E-02
RMM:   2    -0.235001191379E+02   -0.15438E-02   -0.15913E-02   160   0.500E-01    0.410E-02
RMM:   3    -0.235001096769E+02    0.94610E-05   -0.33401E-04   162   0.661E-02    0.388E-02
RMM:   4    -0.235000502316E+02    0.59445E-04   -0.10976E-04   159   0.336E-02    0.136E-02
RMM:   5    -0.235000550848E+02   -0.48532E-05   -0.92391E-05   157   0.312E-02
  41 F= -.23500055E+02 E0= -.23500055E+02  d E =-.103178E-02
 curvature:  -7.18 expect dE=-0.223E-02 dE for cont linesearch -0.927E-05
 trial: gam= 0.73701 g(F)=  0.311E-03 g(S)=  0.000E+00 ort =-0.329E-04 (trialstep = 0.351E+01)
 search vector abs. value=  0.718E-03
 bond charge predicted
       N       E                     dE             d eps       ncg     rms          rms(c)
DAV:   1    -0.234992845266E+02    0.76570E-03   -0.33295E+00   176   0.626E+00    0.456E-02
RMM:   2    -0.235006764042E+02   -0.13919E-02   -0.14392E-02   160   0.480E-01    0.389E-02
RMM:   3    -0.235006662583E+02    0.10146E-04   -0.30247E-04   163   0.631E-02    0.367E-02
RMM:   4    -0.235006102370E+02    0.56021E-04   -0.10894E-04   160   0.336E-02    0.118E-02
RMM:   5    -0.235006144298E+02   -0.41928E-05   -0.73966E-05   157   0.278E-02
  42 F= -.23500614E+02 E0= -.23500614E+02  d E =-.559345E-03
 trial-energy change:   -0.000559  1 .order   -0.000598   -0.001004   -0.000192
 step:   4.3324(harm=  4.3324)  dis= 0.00754  next Energy=   -23.500675 (dE=-0.620E-03)
 bond charge predicted
       N       E                     dE             d eps       ncg     rms          rms(c)
DAV:   1    -0.235005453609E+02    0.64876E-04   -0.18472E-01   176   0.147E+00    0.118E-02
RMM:   2    -0.235006237751E+02   -0.78414E-04   -0.81131E-04   160   0.113E-01    0.883E-03
RMM:   3    -0.235006235274E+02    0.24768E-06   -0.14048E-05    83   0.150E-02
  43 F= -.23500624E+02 E0= -.23500624E+02  d E =-.568443E-03
 curvature:  -5.43 expect dE=-0.110E-02 dE for cont linesearch -0.235E-04
 ZBRENT: interpolating
 opt :   3.9148  next Energy=   -23.500626 (dE=-0.571E-03)
 bond charge predicted
       N       E                     dE             d eps       ncg     rms          rms(c)
DAV:   1    -0.235006038726E+02    0.19902E-04   -0.46891E-02   176   0.742E-01    0.565E-03
RMM:   2    -0.235006253865E+02   -0.21514E-04   -0.21188E-04   156   0.579E-02    0.394E-03
RMM:   3    -0.235006258499E+02   -0.46340E-06   -0.39223E-06    83   0.796E-03
  44 F= -.23500626E+02 E0= -.23500626E+02  d E =-.570765E-03
 curvature:  -2.58 expect dE=-0.427E-03 dE for cont linesearch -0.410E-05
 ZBRENT: bisectioning
 opt :   4.1236  next Energy=   -23.500632 (dE=-0.577E-03)
 bond charge predicted
       N       E                     dE             d eps       ncg     rms          rms(c)
DAV:   1    -0.235006219280E+02    0.34585E-05   -0.11724E-02   176   0.371E-01    0.383E-03
RMM:   2    -0.235006275602E+02   -0.56323E-05   -0.54017E-05   133   0.294E-02
  45 F= -.23500628E+02 E0= -.23500628E+02  d E =-.572475E-03
 curvature:  -3.74 expect dE=-0.692E-03 dE for cont linesearch -0.995E-05
 ZBRENT: interpolating
 opt :   4.0058  next Energy=   -23.500627 (dE=-0.572E-03)
 bond charge predicted
       N       E                     dE             d eps       ncg     rms          rms(c)
DAV:   1    -0.235006262759E+02   -0.43480E-05   -0.37022E-03   176   0.209E-01    0.267E-03
RMM:   2    -0.235006281178E+02   -0.18418E-05   -0.15422E-05    83   0.164E-02
  46 F= -.23500628E+02 E0= -.23500628E+02  d E =-.573033E-03
 curvature:  -0.58 expect dE=-0.101E-03 dE for cont linesearch -0.816E-06
 trial: gam= 0.40290 g(F)=  0.174E-03 g(S)=  0.000E+00 ort = 0.319E-04 (trialstep = 0.361E+01)
 search vector abs. value=  0.317E-03
 bond charge predicted
       N       E                     dE             d eps       ncg     rms          rms(c)
DAV:   1    -0.235003214094E+02    0.30487E-03   -0.15544E+00   160   0.429E+00    0.309E-02
RMM:   2    -0.235009646107E+02   -0.64320E-03   -0.67029E-03   160   0.330E-01    0.267E-02
RMM:   3    -0.235009592410E+02    0.53698E-05   -0.14170E-04   162   0.432E-02    0.252E-02
RMM:   4    -0.235009321080E+02    0.27133E-04   -0.50526E-05   139   0.231E-02    0.811E-03
RMM:   5    -0.235009321123E+02   -0.42146E-08   -0.33709E-05    98   0.198E-02
  47 F= -.23500932E+02 E0= -.23500932E+02  d E =-.303994E-03
 trial-energy change:   -0.000304  1 .order   -0.000415   -0.000675   -0.000154
 step:   4.6737(harm=  4.6737)  dis= 0.00479  next Energy=   -23.501066 (dE=-0.438E-03)
 bond charge predicted
       N       E                     dE             d eps       ncg     rms          rms(c)
DAV:   1    -0.235008541089E+02    0.77999E-04   -0.13579E-01   160   0.127E+00    0.109E-02
RMM:   2    -0.235009096674E+02   -0.55558E-04   -0.59724E-04   160   0.980E-02    0.733E-03
RMM:   3    -0.235009090772E+02    0.59015E-06   -0.10176E-05    84   0.127E-02
  48 F= -.23500909E+02 E0= -.23500909E+02  d E =-.280959E-03
 curvature:  -3.95 expect dE=-0.819E-03 dE for cont linesearch -0.554E-04
 ZBRENT: interpolating
 opt :   4.0234  next Energy=   -23.500941 (dE=-0.313E-03)
 bond charge predicted
       N       E                     dE             d eps       ncg     rms          rms(c)
DAV:   1    -0.235009050831E+02    0.45843E-05   -0.50258E-02   176   0.771E-01    0.580E-03
RMM:   2    -0.235009276104E+02   -0.22527E-04   -0.22540E-04   155   0.603E-02    0.420E-03
RMM:   3    -0.235009277809E+02   -0.17051E-06   -0.41202E-06    82   0.815E-03
  49 F= -.23500928E+02 E0= -.23500928E+02  d E =-.299663E-03
 curvature:  -0.64 expect dE=-0.800E-04 dE for cont linesearch -0.943E-12
 trial: gam= 0.77866 g(F)=  0.125E-03 g(S)=  0.000E+00 ort = 0.216E-07 (trialstep = 0.368E+01)
 search vector abs. value=  0.317E-03
 bond charge predicted
       N       E                     dE             d eps       ncg     rms          rms(c)
DAV:   1    -0.235005572936E+02    0.37032E-03   -0.16229E+00   160   0.437E+00    0.316E-02
RMM:   2    -0.235012345039E+02   -0.67721E-03   -0.70245E-03   160   0.335E-01    0.269E-02
RMM:   3    -0.235012295439E+02    0.49600E-05   -0.14955E-04   163   0.442E-02    0.254E-02
RMM:   4    -0.235012024126E+02    0.27131E-04   -0.48074E-05   133   0.224E-02    0.880E-03
RMM:   5    -0.235012028699E+02   -0.45729E-06   -0.38751E-05   110   0.209E-02
  50 F= -.23501203E+02 E0= -.23501203E+02  d E =-.275089E-03
 trial-energy change:   -0.000275  1 .order   -0.000369   -0.000462   -0.000276
 step:   9.1632(harm=  9.1632)  dis= 0.00888  next Energy=   -23.501503 (dE=-0.575E-03)
 bond charge predicted
       N       E                     dE             d eps       ncg     rms          rms(c)
DAV:   1    -0.234996037841E+02    0.15986E-02   -0.36046E+00   160   0.652E+00    0.477E-02
RMM:   2    -0.235011041845E+02   -0.15004E-02   -0.15572E-02   160   0.499E-01    0.404E-02
RMM:   3    -0.235010928075E+02    0.11377E-04   -0.32824E-04   162   0.655E-02    0.380E-02
RMM:   4    -0.235010319954E+02    0.60812E-04   -0.11898E-04   160   0.349E-02    0.121E-02
RMM:   5    -0.235010347437E+02   -0.27484E-05   -0.78101E-05   159   0.284E-02
  51 F= -.23501035E+02 E0= -.23501035E+02  d E =-.106963E-03
 curvature: -11.59 expect dE=-0.433E-02 dE for cont linesearch -0.371E-03
 ZBRENT: interpolating
 opt :   6.0200  next Energy=   -23.501291 (dE=-0.363E-03)
 bond charge predicted
       N       E                     dE             d eps       ncg     rms          rms(c)
DAV:   1    -0.235007674488E+02    0.26455E-03   -0.11868E+00   160   0.374E+00    0.256E-02
RMM:   2    -0.235012624516E+02   -0.49500E-03   -0.50799E-03   160   0.285E-01    0.239E-02
RMM:   3    -0.235012589916E+02    0.34600E-05   -0.10720E-04   160   0.375E-02    0.228E-02
RMM:   4    -0.235012398252E+02    0.19166E-04   -0.35629E-05   105   0.197E-02    0.833E-03
RMM:   5    -0.235012427670E+02   -0.29418E-05   -0.34444E-05   103   0.202E-02
  52 F= -.23501243E+02 E0= -.23501243E+02  d E =-.314986E-03
 curvature:  -2.74 expect dE=-0.365E-03 dE for cont linesearch -0.135E-04
 ZBRENT: interpolating
 opt :   5.2131  next Energy=   -23.501259 (dE=-0.331E-03)
 bond charge predicted
       N       E                     dE             d eps       ncg     rms          rms(c)
DAV:   1    -0.235012112530E+02    0.28572E-04   -0.77666E-02   176   0.956E-01    0.953E-03
RMM:   2    -0.235012445082E+02   -0.33255E-04   -0.35157E-04   159   0.744E-02    0.499E-03
RMM:   3    -0.235012448695E+02   -0.36125E-06   -0.60954E-06    84   0.982E-03
  53 F= -.23501245E+02 E0= -.23501245E+02  d E =-.317089E-03
 curvature:  -3.24 expect dE=-0.289E-03 dE for cont linesearch -0.806E-05
 ZBRENT: interpolating
 opt :   5.5485  next Energy=   -23.501250 (dE=-0.322E-03)
 bond charge predicted
       N       E                     dE             d eps       ncg     rms          rms(c)
DAV:   1    -0.235012394932E+02    0.50150E-05   -0.13363E-02   176   0.396E-01    0.293E-03
RMM:   2    -0.235012453722E+02   -0.58789E-05   -0.59670E-05   136   0.310E-02
  54 F= -.23501245E+02 E0= -.23501245E+02  d E =-.317591E-03
 curvature:  -1.89 expect dE=-0.215E-03 dE for cont linesearch -0.717E-05
 ZBRENT: interpolating
 opt :   5.3633  next Energy=   -23.501247 (dE=-0.319E-03)
 bond charge predicted
       N       E                     dE             d eps       ncg     rms          rms(c)
DAV:   1    -0.235012439482E+02   -0.44550E-05   -0.40471E-03   176   0.219E-01    0.334E-03
RMM:   2    -0.235012454242E+02   -0.14760E-05   -0.17471E-05    81   0.174E-02
  55 F= -.23501245E+02 E0= -.23501245E+02  d E =-.317643E-03
 curvature:  -0.56 expect dE=-0.551E-04 dE for cont linesearch -0.700E-06
 ZBRENT: bisectioning
 opt :   5.4559  next Energy=   -23.501247 (dE=-0.319E-03)
 bond charge predicted
       N       E                     dE             d eps       ncg     rms          rms(c)
DAV:   1    -0.235012451872E+02   -0.12390E-05   -0.10106E-03   176   0.109E-01    0.139E-03
RMM:   2    -0.235012456189E+02   -0.43173E-06   -0.46332E-06    81   0.902E-03
  56 F= -.23501246E+02 E0= -.23501246E+02  d E =-.317838E-03
 curvature:  -1.29 expect dE=-0.132E-03 dE for cont linesearch -0.808E-06
 trial: gam= 0.94253 g(F)=  0.103E-03 g(S)=  0.000E+00 ort =-0.141E-04 (trialstep = 0.358E+01)
 search vector abs. value=  0.358E-03
 bond charge predicted
       N       E                     dE             d eps       ncg     rms          rms(c)
DAV:   1    -0.235007332933E+02    0.51189E-03   -0.17333E+00   160   0.451E+00    0.309E-02
RMM:   2    -0.235014549619E+02   -0.72167E-03   -0.73985E-03   160   0.342E-01    0.287E-02
RMM:   3    -0.235014497057E+02    0.52562E-05   -0.15498E-04   161   0.451E-02    0.274E-02
RMM:   4    -0.235014201414E+02    0.29564E-04   -0.56715E-05   143   0.241E-02    0.934E-03
RMM:   5    -0.235014229379E+02   -0.27965E-05   -0.44930E-05   125   0.221E-02
  57 F= -.23501423E+02 E0= -.23501423E+02  d E =-.177319E-03
 trial-energy change:   -0.000177  1 .order   -0.000181   -0.000320   -0.000042
 step:   4.1212(harm=  4.1212)  dis= 0.00516  next Energy=   -23.501430 (dE=-0.184E-03)
 bond charge predicted
       N       E                     dE             d eps       ncg     rms          rms(c)
DAV:   1    -0.235013897072E+02    0.30434E-04   -0.39951E-02   176   0.684E-01    0.589E-03
RMM:   2    -0.235014068262E+02   -0.17119E-04   -0.17648E-04   151   0.526E-02    0.403E-03
RMM:   3    -0.235014068778E+02   -0.51539E-07   -0.30741E-06    81   0.698E-03
  58 F= -.23501407E+02 E0= -.23501407E+02  d E =-.161259E-03
 curvature:  -8.25 expect dE=-0.514E-03 dE for cont linesearch -0.653E-04
 ZBRENT: interpolating
 opt :   3.6750  next Energy=   -23.501424 (dE=-0.178E-03)
 bond charge predicted
       N       E                     dE             d eps       ncg     rms          rms(c)
DAV:   1    -0.235014087276E+02   -0.19013E-05   -0.26837E-02   176   0.560E-01    0.386E-03
RMM:   2    -0.235014202634E+02   -0.11536E-04   -0.11748E-04   147   0.431E-02    0.325E-03
RMM:   3    -0.235014202433E+02    0.20127E-07   -0.23794E-06    81   0.606E-03
  59 F= -.23501420E+02 E0= -.23501420E+02  d E =-.174624E-03
 curvature:  -0.07 expect dE=-0.343E-05 dE for cont linesearch -0.239E-07
 ZBRENT: interpolating
 opt :   3.6278  next Energy=   -23.501420 (dE=-0.175E-03)
 bond charge predicted
       N       E                     dE             d eps       ncg     rms          rms(c)
DAV:   1    -0.235014209556E+02   -0.69215E-06   -0.31438E-04   176   0.612E-02    0.112E-03
RMM:   2    -0.235014210859E+02   -0.13027E-06   -0.91265E-07    74   0.418E-03
  60 F= -.23501421E+02 E0= -.23501421E+02  d E =-.175467E-03
 curvature:  -0.79 expect dE=-0.354E-04 dE for cont linesearch -0.478E-06
 ZBRENT: interpolating
 opt :   3.5990  next Energy=   -23.501423 (dE=-0.177E-03)
 bond charge predicted
       N       E                     dE             d eps       ncg     rms          rms(c)
DAV:   1    -0.235014216887E+02   -0.73316E-06   -0.11459E-04   168   0.368E-02    0.284E-04
RMM:   2    -0.235014217782E+02   -0.89432E-07   -0.19889E-07    33   0.277E-03
  61 F= -.23501422E+02 E0= -.23501422E+02  d E =-.176159E-03
 curvature:  -0.23 expect dE=-0.101E-04 dE for cont linesearch -0.141E-06
 ZBRENT: interpolating
 opt :   3.5861  next Energy=   -23.501423 (dE=-0.177E-03)
 bond charge predicted
       N       E                     dE             d eps       ncg     rms          rms(c)
DAV:   1    -0.235014219741E+02   -0.28534E-06   -0.21949E-05    88   0.162E-02    0.332E-04
RMM:   2    -0.235014221544E+02   -0.18033E-06   -0.12457E-06    64   0.473E-03
  62 F= -.23501422E+02 E0= -.23501422E+02  d E =-.176536E-03
 curvature:  -0.10 expect dE=-0.419E-05 dE for cont linesearch -0.636E-08
 trial: gam= 0.23256 g(F)=  0.433E-04 g(S)=  0.000E+00 ort = 0.485E-05 (trialstep = 0.358E+01)
 search vector abs. value=  0.649E-04
 bond charge predicted
       N       E                     dE             d eps       ncg     rms          rms(c)
DAV:   1    -0.235013795465E+02    0.42428E-04   -0.31430E-01   160   0.191E+00    0.138E-02
RMM:   2    -0.235015117208E+02   -0.13217E-03   -0.13600E-03   160   0.146E-01    0.120E-02
RMM:   3    -0.235015108646E+02    0.85623E-06   -0.23550E-05    85   0.193E-02
  63 F= -.23501511E+02 E0= -.23501511E+02  d E =-.887102E-04
 trial-energy change:   -0.000089  1 .order   -0.000063   -0.000159    0.000034
 step:   2.9500(harm=  2.9500)  dis= 0.00149  next Energy=   -23.501488 (dE=-0.655E-04)
 bond charge predicted
       N       E                     dE             d eps       ncg     rms          rms(c)
DAV:   1    -0.235014964486E+02    0.15272E-04   -0.94694E-03   160   0.331E-01    0.444E-03
RMM:   2    -0.235015009630E+02   -0.45143E-05   -0.47099E-05   118   0.274E-02
  64 F= -.23501501E+02 E0= -.23501501E+02  d E =-.788085E-04
 curvature:  -2.16 expect dE=-0.696E-04 dE for cont linesearch -0.254E-04
 ZBRENT: interpolating
 opt :   3.4180  next Energy=   -23.501512 (dE=-0.895E-04)
 bond charge predicted
       N       E                     dE             d eps       ncg     rms          rms(c)
DAV:   1    -0.235015043031E+02   -0.78545E-05   -0.53075E-03   176   0.249E-01    0.282E-03
RMM:   2    -0.235015064517E+02   -0.21486E-05   -0.21934E-05    82   0.195E-02
  65 F= -.23501506E+02 E0= -.23501506E+02  d E =-.842973E-04
 curvature:  -0.06 expect dE=-0.162E-05 dE for cont linesearch -0.335E-08
 trial: gam= 0.42211 g(F)=  0.253E-04 g(S)=  0.000E+00 ort =-0.184E-05 (trialstep = 0.355E+01)
 search vector abs. value=  0.353E-04
 bond charge predicted
       N       E                     dE             d eps       ncg     rms          rms(c)
DAV:   1    -0.235015036384E+02    0.66467E-06   -0.16767E-01   160   0.140E+00    0.105E-02
RMM:   2    -0.235015725877E+02   -0.68949E-04   -0.72366E-04   160   0.107E-01    0.910E-03
RMM:   3    -0.235015718041E+02    0.78361E-06   -0.12611E-05    84   0.142E-02
  66 F= -.23501572E+02 E0= -.23501572E+02  d E =-.653524E-04
 trial-energy change:   -0.000065  1 .order   -0.000050   -0.000087   -0.000013
 step:   4.1556(harm=  4.1556)  dis= 0.00225  next Energy=   -23.501557 (dE=-0.509E-04)
 bond charge predicted
       N       E                     dE             d eps       ncg     rms          rms(c)
DAV:   1    -0.235015746423E+02   -0.20546E-05   -0.50788E-03   176   0.246E-01    0.282E-03
RMM:   2    -0.235015761354E+02   -0.14931E-05   -0.17475E-05    82   0.181E-02
  67 F= -.23501576E+02 E0= -.23501576E+02  d E =-.696836E-04
 curvature:  -2.99 expect dE=-0.580E-04 dE for cont linesearch -0.193E-05
 ZBRENT: increasing intervall
 opt :   5.3750  next Energy=   -23.501583 (dE=-0.769E-04)
 bond charge predicted
       N       E                     dE             d eps       ncg     rms          rms(c)
DAV:   1    -0.235015770303E+02   -0.23881E-05   -0.19889E-02   176   0.484E-01    0.352E-03
RMM:   2    -0.235015846409E+02   -0.76106E-05   -0.80559E-05   142   0.361E-02
  68 F= -.23501585E+02 E0= -.23501585E+02  d E =-.781892E-04
 curvature: -11.25 expect dE=-0.327E-03 dE for cont linesearch -0.195E-04
 ZBRENT: bracketing found
 ZBRENT: interpolating
 opt :   4.6174  next Energy=   -23.501577 (dE=-0.708E-04)
 bond charge predicted
       N       E                     dE             d eps       ncg     rms          rms(c)
DAV:   1    -0.235015770547E+02   -0.24391E-07   -0.75465E-03   176   0.299E-01    0.534E-03
RMM:   2    -0.235015797697E+02   -0.27150E-05   -0.34961E-05    94   0.240E-02
  69 F= -.23501580E+02 E0= -.23501580E+02  d E =-.733180E-04
 curvature:  -0.64 expect dE=-0.187E-04 dE for cont linesearch -0.559E-05
 trial: gam= 0.00000 g(F)=  0.294E-04 g(S)=  0.000E+00 ort = 0.176E-04 (trialstep = 0.376E+01)
 search vector abs. value=  0.294E-04
 reached required accuracy - stopping structural energy minimisation
