<?xml version="1.0" encoding="ISO-8859-1"?>
<modeling>
 <generator>
  <i name="program" type="string">vasp </i>
  <i name="version" type="string">5.4.4.18Apr17-6-g9f103f2a35  </i>
  <i name="subversion" type="string">(build Jun 19 2019 11:58:18) complex            parallel </i>
  <i name="platform" type="string">LinuxIFC </i>
  <i name="date" type="string">2022 07 17 </i>
  <i name="time" type="string">11:02:24 </i>
 </generator>
 <incar>
  <i type="string" name="SYSTEM"> BLACK</i>
  <i type="int" name="ISTART">     0</i>
  <i type="string" name="PREC">normal</i>
  <i type="string" name="ALGO"> Fast</i>
  <i type="int" name="ICHARG">     2</i>
  <i type="int" name="NELM">   200</i>
  <i type="int" name="NELMIN">     2</i>
  <i type="int" name="IBRION">     2</i>
  <i name="EDIFF">      0.00001000</i>
  <i name="EDIFFG">     -0.01000000</i>
  <i type="int" name="NSW">  1000</i>
  <i type="int" name="ISIF">     2</i>
  <i type="int" name="ISYM">     2</i>
  <i name="ENCUT">    400.00000000</i>
  <i type="string" name="LREAL"> auto</i>
  <i type="int" name="ISMEAR">     0</i>
  <i name="SIGMA">      0.05000000</i>
  <i type="int" name="NWRITE">     2</i>
  <i type="logical" name="LWAVE"> F  </i>
  <i type="logical" name="LCHARG"> F  </i>
  <v type="int" name="KPOINT_BSE">    -1     0     0     0</v>
  <i type="int" name="NELM">   200</i>
  <i type="string" name="GGA"> PE</i>
 </incar>
 <structure name="primitive_cell" >
  <crystal>
   <varray name="basis" >
    <v>      25.09731200       0.00000000       0.00000000 </v>
    <v>       0.00000000      26.39702918       0.00000000 </v>
    <v>       0.00000000       0.00000000      25.45109991 </v>
   </varray>
   <i name="volume">  16861.21312721 </i>
   <varray name="rec_basis" >
    <v>       0.03984490       0.00000000       0.00000000 </v>
    <v>       0.00000000       0.03788305       0.00000000 </v>
    <v>       0.00000000       0.00000000       0.03929103 </v>
   </varray>
  </crystal>
  <varray name="positions" >
   <v>       0.49734997      -0.44234417      -0.30811641 </v>
   <v>      -0.45023769      -0.35171254      -0.30221860 </v>
   <v>      -0.48842666      -0.49309929      -0.40249217 </v>
   <v>      -0.40249415      -0.43865226      -0.35904496 </v>
   <v>      -0.49238272      -0.38936445      -0.40426503 </v>
   <v>      -0.42771491      -0.30842190      -0.40097864 </v>
   <v>      -0.34380777      -0.35292524      -0.33743294 </v>
   <v>      -0.40080818      -0.39293926      -0.46397849 </v>
   <v>      -0.30832599      -0.42241223      -0.41193095 </v>
   <v>      -0.32236370      -0.31630047      -0.44295515 </v>
   <v>      -0.34262862      -0.25076030      -0.36511264 </v>
   <v>      -0.29954812      -0.38703400       0.48360206 </v>
  </varray>
 </structure>
 <varray name="primitive_index" >
  <v type="int" >        1 </v>
  <v type="int" >        9 </v>
  <v type="int" >        5 </v>
  <v type="int" >       12 </v>
  <v type="int" >        2 </v>
  <v type="int" >        6 </v>
  <v type="int" >        8 </v>
  <v type="int" >        7 </v>
  <v type="int" >       11 </v>
  <v type="int" >       10 </v>
  <v type="int" >        4 </v>
  <v type="int" >        3 </v>
 </varray>
 <kpoints>
  <generation param="Gamma">
   <v type="int" name="divisions">       1        1        1 </v>
   <v name="usershift">      0.00000000       0.00000000       0.00000000 </v>
   <v name="genvec1">      1.00000000       0.00000000       0.00000000 </v>
   <v name="genvec2">      0.00000000       1.00000000       0.00000000 </v>
   <v name="genvec3">      0.00000000       0.00000000       1.00000000 </v>
   <v name="shift">      0.00000000       0.00000000       0.00000000 </v>
  </generation>
  <varray name="kpointlist" >
   <v>       0.00000000       0.00000000       0.00000000 </v>
  </varray>
  <varray name="weights" >
   <v>       1.00000000 </v>
  </varray>
 </kpoints>
 <parameters>
  <separator name="general" >
   <i type="string" name="SYSTEM">BLACK</i>
   <i type="logical" name="LCOMPAT"> F  </i>
  </separator>
  <separator name="electronic" >
   <i type="string" name="PREC">normal</i>
   <i name="ENMAX">    400.00000000</i>
   <i name="ENAUG">    412.49600000</i>
   <i name="EDIFF">      0.00001000</i>
   <i type="int" name="IALGO">    68</i>
   <i type="int" name="IWAVPR">    11</i>
   <i type="int" name="NBANDS">    80</i>
   <i name="NELECT">    132.00000000</i>
   <i type="int" name="TURBO">     0</i>
   <i type="int" name="IRESTART">     0</i>
   <i type="int" name="NREBOOT">     0</i>
   <i type="int" name="NMIN">     0</i>
   <i name="EREF">      0.00000000</i>
   <separator name="electronic smearing" >
    <i type="int" name="ISMEAR">     0</i>
    <i name="SIGMA">      0.05000000</i>
    <i name="KSPACING">      0.50000000</i>
    <i type="logical" name="KGAMMA"> T  </i>
   </separator>
   <separator name="electronic projectors" >
    <i type="logical" name="LREAL"> T  </i>
    <v name="ROPT">     -0.00050000</v>
    <i type="int" name="LMAXPAW">  -100</i>
    <i type="int" name="LMAXMIX">     2</i>
    <i type="logical" name="NLSPLINE"> F  </i>
   </separator>
   <separator name="electronic startup" >
    <i type="int" name="ISTART">     0</i>
    <i type="int" name="ICHARG">     2</i>
    <i type="int" name="INIWAV">     1</i>
   </separator>
   <separator name="electronic spin" >
    <i type="int" name="ISPIN">     1</i>
    <i type="logical" name="LNONCOLLINEAR"> F  </i>
    <v name="MAGMOM">      1.00000000      1.00000000      1.00000000      1.00000000      1.00000000      1.00000000      1.00000000      1.00000000      1.00000000      1.00000000      1.00000000      1.00000000</v>
    <i name="NUPDOWN">     -1.00000000</i>
    <i type="logical" name="LSORBIT"> F  </i>
    <v name="SAXIS">      0.00000000      0.00000000      1.00000000</v>
    <i type="logical" name="LSPIRAL"> F  </i>
    <v name="QSPIRAL">      0.00000000      0.00000000      0.00000000</v>
    <i type="logical" name="LZEROZ"> F  </i>
   </separator>
   <separator name="electronic exchange-correlation" >
    <i type="logical" name="LASPH"> F  </i>
    <i type="logical" name="LMETAGGA"> F  </i>
   </separator>
   <separator name="electronic convergence" >
    <i type="int" name="NELM">   200</i>
    <i type="int" name="NELMDL">    -5</i>
    <i type="int" name="NELMIN">     2</i>
    <i name="ENINI">    400.00000000</i>
    <separator name="electronic convergence detail" >
     <i type="logical" name="LDIAG"> T  </i>
     <i type="logical" name="LSUBROT"> F  </i>
     <i name="WEIMIN">      0.00100000</i>
     <i name="EBREAK">      0.00000003</i>
     <i name="DEPER">      0.30000000</i>
     <i type="int" name="NRMM">     4</i>
     <i name="TIME">      0.40000000</i>
    </separator>
   </separator>
   <separator name="electronic mixer" >
    <i name="AMIX">      0.40000000</i>
    <i name="BMIX">      1.00000000</i>
    <i name="AMIN">      0.10000000</i>
    <i name="AMIX_MAG">      1.60000000</i>
    <i name="BMIX_MAG">      1.00000000</i>
    <separator name="electronic mixer details" >
     <i type="int" name="IMIX">     4</i>
     <i type="logical" name="MIXFIRST"> F  </i>
     <i type="int" name="MAXMIX">   -45</i>
     <i name="WC">    100.00000000</i>
     <i type="int" name="INIMIX">     1</i>
     <i type="int" name="MIXPRE">     1</i>
     <i type="int" name="MREMOVE">     5</i>
    </separator>
   </separator>
   <separator name="electronic dipolcorrection" >
    <i type="logical" name="LDIPOL"> F  </i>
    <i type="logical" name="LMONO"> F  </i>
    <i type="int" name="IDIPOL">     0</i>
    <i name="EPSILON">      1.00000000</i>
    <v name="DIPOL">   -100.00000000   -100.00000000   -100.00000000</v>
    <i name="EFIELD">      0.00000000</i>
   </separator>
  </separator>
  <separator name="grids" >
   <i type="int" name="NGX">   126</i>
   <i type="int" name="NGY">   140</i>
   <i type="int" name="NGZ">   126</i>
   <i type="int" name="NGXF">   252</i>
   <i type="int" name="NGYF">   280</i>
   <i type="int" name="NGZF">   252</i>
   <i type="logical" name="ADDGRID"> F  </i>
  </separator>
  <separator name="ionic" >
   <i type="int" name="NSW">  1000</i>
   <i type="int" name="IBRION">     2</i>
   <i type="int" name="MDALGO">     0</i>
   <i type="int" name="ISIF">     2</i>
   <i name="PSTRESS">      0.00000000</i>
   <i name="EDIFFG">     -0.01000000</i>
   <i type="int" name="NFREE">     1</i>
   <i name="POTIM">      0.50000000</i>
   <i name="SMASS">     -3.00000000</i>
   <i name="SCALEE">      1.00000000</i>
  </separator>
  <separator name="ionic md" >
   <i name="TEBEG">      0.00010000</i>
   <i name="TEEND">      0.00010000</i>
   <i type="int" name="NBLOCK">     1</i>
   <i type="int" name="KBLOCK">  1000</i>
   <i type="int" name="NPACO">   256</i>
   <i name="APACO">     16.00000000</i>
  </separator>
  <separator name="symmetry" >
   <i type="int" name="ISYM">     2</i>
   <i name="SYMPREC">      0.00001000</i>
  </separator>
  <separator name="dos" >
   <i type="int" name="LORBIT">     0</i>
   <v name="RWIGS">     -1.00000000</v>
   <i type="int" name="NEDOS">   301</i>
   <i name="EMIN">     10.00000000</i>
   <i name="EMAX">    -10.00000000</i>
   <i name="EFERMI">      0.00000000</i>
  </separator>
  <separator name="writing" >
   <i type="int" name="NWRITE">     2</i>
   <i type="logical" name="LWAVE"> F  </i>
   <i type="logical" name="LDOWNSAMPLE"> F  </i>
   <i type="logical" name="LCHARG"> F  </i>
   <i type="logical" name="LPARD"> F  </i>
   <i type="logical" name="LVTOT"> F  </i>
   <i type="logical" name="LVHAR"> F  </i>
   <i type="logical" name="LELF"> F  </i>
   <i type="logical" name="LOPTICS"> F  </i>
   <v name="STM">      0.00000000      0.00000000      0.00000000      0.00000000      0.00000000      0.00000000      0.00000000</v>
  </separator>
  <separator name="performance" >
   <i type="int" name="NPAR">     2</i>
   <i type="int" name="NSIM">     4</i>
   <i type="int" name="NBLK">    -1</i>
   <i type="logical" name="LPLANE"> T  </i>
   <i type="logical" name="LSCALAPACK"> T  </i>
   <i type="logical" name="LSCAAWARE"> F  </i>
   <i type="logical" name="LSCALU"> F  </i>
   <i type="logical" name="LASYNC"> F  </i>
   <i type="logical" name="LORBITALREAL"> F  </i>
  </separator>
  <separator name="miscellaneous" >
   <i type="int" name="IDIOT">     3</i>
   <i type="int" name="ISPECIAL">     0</i>
   <i type="logical" name="LMUSIC"> F  </i>
   <v name="POMASS">    107.86800000</v>
   <v name="DARWINR">      0.00000000</v>
   <v name="DARWINV">      1.00000000</v>
   <i type="logical" name="LCORR"> T  </i>
  </separator>
  <i type="logical" name="GGA_COMPAT"> T  </i>
  <i type="logical" name="LBERRY"> F  </i>
  <i type="int" name="ICORELEVEL">     0</i>
  <i type="logical" name="LDAU"> F  </i>
  <i type="int" name="I_CONSTRAINED_M">     0</i>
  <separator name="electronic exchange-correlation" >
   <i type="string" name="GGA">PE</i>
   <i type="int" name="VOSKOWN">     0</i>
   <i type="logical" name="LHFCALC"> F  </i>
   <i type="string" name="PRECFOCK"></i>
   <i type="logical" name="LSYMGRAD"> F  </i>
   <i type="logical" name="LHFONE"> F  </i>
   <i type="logical" name="LRHFCALC"> F  </i>
   <i type="logical" name="LTHOMAS"> F  </i>
   <i type="logical" name="LMODELHF"> F  </i>
   <i name="ENCUT4O">     -1.00000000</i>
   <i type="int" name="EXXOEP">     0</i>
   <i type="int" name="FOURORBIT">     0</i>
   <i name="AEXX">      0.00000000</i>
   <i name="HFALPHA">      0.00000000</i>
   <i name="MCALPHA">      0.00000000</i>
   <i name="ALDAX">      1.00000000</i>
   <i name="AGGAX">      1.00000000</i>
   <i name="ALDAC">      1.00000000</i>
   <i name="AGGAC">      1.00000000</i>
   <i type="int" name="NKREDX">     1</i>
   <i type="int" name="NKREDY">     1</i>
   <i type="int" name="NKREDZ">     1</i>
   <i type="logical" name="SHIFTRED"> F  </i>
   <i type="logical" name="ODDONLY"> F  </i>
   <i type="logical" name="EVENONLY"> F  </i>
   <i type="int" name="LMAXFOCK">     0</i>
   <i type="int" name="NMAXFOCKAE">     0</i>
   <i type="logical" name="LFOCKAEDFT"> F  </i>
   <i name="HFSCREEN">      0.00000000</i>
   <i name="HFSCREENC">      0.00000000</i>
   <i type="int" name="NBANDSGWLOW">     0</i>
  </separator>
  <separator name="vdW DFT" >
   <i type="logical" name="LUSE_VDW"> F  </i>
   <i name="Zab_VDW">     -0.84910000</i>
   <i name="PARAM1">      0.12340000</i>
   <i name="PARAM2">      1.00000000</i>
   <i name="PARAM3">      0.00000000</i>
  </separator>
  <separator name="model GW" >
   <i type="int" name="MODEL_GW">     0</i>
   <i name="MODEL_EPS0">    843.06065636</i>
   <i name="MODEL_ALPHA">      1.00000000</i>
  </separator>
  <separator name="linear response parameters" >
   <i type="logical" name="LEPSILON"> F  </i>
   <i type="logical" name="LRPA"> F  </i>
   <i type="logical" name="LNABLA"> F  </i>
   <i type="logical" name="LVEL"> F  </i>
   <i type="int" name="KINTER">     0</i>
   <i name="CSHIFT">      0.10000000</i>
   <i name="OMEGAMAX">     -1.00000000</i>
   <i name="DEG_THRESHOLD">      0.00200000</i>
   <i name="RTIME">     -0.10000000</i>
   <i name="WPLASMAI">      0.00000000</i>
   <v name="DFIELD">      0.00000000      0.00000000      0.00000000</v>
   <v name="WPLASMA">      0.00000000      0.00000000      0.00000000      0.00000000      0.00000000      0.00000000      0.00000000      0.00000000      0.00000000</v>
  </separator>
  <separator name="orbital magnetization" >
   <i type="logical" name="NUCIND"> F  </i>
   <v name="MAGPOS">      0.00000000      0.00000000      0.00000000</v>
   <i type="logical" name="LNICSALL"> T  </i>
   <i type="logical" name="ORBITALMAG"> F  </i>
   <i type="logical" name="LMAGBLOCH"> F  </i>
   <i type="logical" name="LCHIMAG"> F  </i>
   <i type="logical" name="LGAUGE"> T  </i>
   <i type="int" name="MAGATOM">     0</i>
   <v name="MAGDIPOL">      0.00000000      0.00000000      0.00000000</v>
   <v name="AVECCONST">      0.00000000      0.00000000      0.00000000</v>
  </separator>
  <separator name="response functions" >
   <i type="logical" name="LADDER"> F  </i>
   <i type="logical" name="LRPAFORCE"> F  </i>
   <i type="logical" name="LFXC"> F  </i>
   <i type="logical" name="LHARTREE"> T  </i>
   <i type="int" name="IBSE">     0</i>
   <v type="int" name="KPOINT">    -1     0     0     0</v>
   <i type="logical" name="LTCTE"> F  </i>
   <i type="logical" name="LTETE"> F  </i>
   <i type="logical" name="LTRIPLET"> F  </i>
   <i type="logical" name="LFXCEPS"> F  </i>
   <i type="logical" name="LFXHEG"> F  </i>
   <i type="int" name="NATURALO">     2</i>
   <i type="logical" name="L2ORDER"> F  </i>
   <i type="logical" name="LMP2LT"> F  </i>
   <i type="logical" name="LUSEW"> F  </i>
   <i name="ENCUTGW">     -2.00000000</i>
   <i name="ENCUTGWSOFT">     -2.00000000</i>
   <i name="ENCUTLF">     -1.00000000</i>
   <i type="int" name="LMAXMP2">    -1</i>
   <i name="SCISSOR">      0.00000000</i>
   <i type="int" name="NOMEGA">     0</i>
   <i type="int" name="NOMEGAR">     0</i>
   <i type="int" name="NBANDSGW">    -1</i>
   <i type="int" name="NBANDSO">    -1</i>
   <i type="int" name="NBANDSV">    -1</i>
   <i type="int" name="NELM">   200</i>
   <i type="int" name="NELMHF">     1</i>
   <i type="int" name="DIM">     3</i>
   <i type="int" name="ANTIRES">     0</i>
   <i name="OMEGAMAX">    -30.00000000</i>
   <i name="OMEGAMIN">    -30.00000000</i>
   <i name="OMEGATL">   -200.00000000</i>
   <i type="int" name="OMEGAGRID">   140</i>
   <i name="CSHIFT">     -0.10000000</i>
   <i type="logical" name="SELFENERGY"> F  </i>
   <i type="logical" name="LSPECTRAL"> F  </i>
   <i type="logical" name="LSPECTRALGW"> F  </i>
   <i type="logical" name="LSINGLES"> F  </i>
   <i type="logical" name="LFERMIGW"> F  </i>
   <i type="logical" name="ODDONLYGW"> F  </i>
   <i type="logical" name="EVENONLYGW"> F  </i>
   <i type="int" name="NKREDLFX">     1</i>
   <i type="int" name="NKREDLFY">     1</i>
   <i type="int" name="NKREDLFZ">     1</i>
   <i type="int" name="MAXMEM">  2800</i>
   <i type="int" name="TELESCOPE">     0</i>
   <i type="int" name="TAUPAR">     1</i>
   <i type="int" name="OMEGAPAR">    -1</i>
   <i name="LAMBDA">      1.00000000</i>
  </separator>
  <separator name="External order field" >
   <i name="OFIELD_KAPPA">      0.00000000</i>
   <v name="OFIELD_K">      0.00000000      0.00000000      0.00000000</v>
   <i name="OFIELD_Q6_NEAR">      0.00000000</i>
   <i name="OFIELD_Q6_FAR">      0.00000000</i>
   <i name="OFIELD_A">      0.00000000</i>
  </separator>
 </parameters>
 <atominfo>
  <atoms>      12 </atoms>
  <types>       1 </types>
  <array name="atoms" >
   <dimension dim="1">ion</dimension>
   <field type="string">element</field>
   <field type="int">atomtype</field>
   <set>
    <rc><c>Ag</c><c>   1</c></rc>
    <rc><c>Ag</c><c>   1</c></rc>
    <rc><c>Ag</c><c>   1</c></rc>
    <rc><c>Ag</c><c>   1</c></rc>
    <rc><c>Ag</c><c>   1</c></rc>
    <rc><c>Ag</c><c>   1</c></rc>
    <rc><c>Ag</c><c>   1</c></rc>
    <rc><c>Ag</c><c>   1</c></rc>
    <rc><c>Ag</c><c>   1</c></rc>
    <rc><c>Ag</c><c>   1</c></rc>
    <rc><c>Ag</c><c>   1</c></rc>
    <rc><c>Ag</c><c>   1</c></rc>
   </set>
  </array>
  <array name="atomtypes" >
   <dimension dim="1">type</dimension>
   <field type="int">atomspertype</field>
   <field type="string">element</field>
   <field>mass</field>
   <field>valence</field>
   <field type="string">pseudopotential</field>
   <set>
    <rc><c>  12</c><c>Ag</c><c>    107.86800000</c><c>     11.00000000</c><c> PAW_PBE Ag 06Sep2000                   </c></rc>
   </set>
  </array>
 </atominfo>
 <structure name="initialpos" >
  <crystal>
   <varray name="basis" >
    <v>      25.09731200       0.00000000       0.00000000 </v>
    <v>       0.00000000      26.39702918       0.00000000 </v>
    <v>       0.00000000       0.00000000      25.45109991 </v>
   </varray>
   <i name="volume">  16861.21312721 </i>
   <varray name="rec_basis" >
    <v>       0.03984490       0.00000000       0.00000000 </v>
    <v>       0.00000000       0.03788305       0.00000000 </v>
    <v>       0.00000000       0.00000000       0.03929103 </v>
   </varray>
  </crystal>
  <varray name="positions" >
   <v>       0.49734997       0.55765583       0.69188359 </v>
   <v>       0.50761728       0.61063555       0.59573497 </v>
   <v>       0.70045188       0.61296600       0.48360206 </v>
   <v>       0.65737138       0.74923970       0.63488736 </v>
   <v>       0.51157334       0.50690071       0.59750783 </v>
   <v>       0.57228509       0.69157810       0.59902136 </v>
   <v>       0.59919182       0.60706074       0.53602151 </v>
   <v>       0.65619223       0.64707476       0.66256706 </v>
   <v>       0.54976231       0.64828746       0.69778140 </v>
   <v>       0.67763630       0.68369953       0.55704485 </v>
   <v>       0.69167401       0.57758777       0.58806905 </v>
   <v>       0.59750585       0.56134774       0.64095504 </v>
  </varray>
 </structure>
 <calculation>
  <scstep>
   <time name="dav">    2.35    2.42</time>
   <time name="total">    2.79    2.87</time>
   <energy>
    <i name="alphaZ">     15.16568811 </i>
    <i name="ewald">  17572.95148928 </i>
    <i name="hartreedc"> -29441.02487353 </i>
    <i name="XCdc">   -139.01462590 </i>
    <i name="pawpsdc">  10448.03032953 </i>
    <i name="pawaedc">  -9891.23939838 </i>
    <i name="eentropy">     -0.04172633 </i>
    <i name="bandstr">     71.62227488 </i>
    <i name="atom">  12448.85194051 </i>
    <i name="e_fr_energy">   1085.30109818 </i>
    <i name="e_wo_entrp">   1085.34282452 </i>
    <i name="e_0_energy">   1085.32196135 </i>
   </energy>
  </scstep>
  <scstep>
   <time name="dav">    3.94    4.21</time>
   <time name="total">    3.94    4.21</time>
   <energy>
    <i name="e_fr_energy">    655.14357104 </i>
    <i name="e_wo_entrp">    655.23113496 </i>
    <i name="e_0_energy">    655.18735300 </i>
   </energy>
  </scstep>
  <scstep>
   <time name="dav">    3.30    3.64</time>
   <time name="total">    3.30    3.64</time>
   <energy>
    <i name="e_fr_energy">    167.17043948 </i>
    <i name="e_wo_entrp">    167.17073034 </i>
    <i name="e_0_energy">    167.17058491 </i>
   </energy>
  </scstep>
  <scstep>
   <time name="dav">    2.66    2.67</time>
   <time name="total">    2.66    2.67</time>
   <energy>
    <i name="e_fr_energy">     -4.82824859 </i>
    <i name="e_wo_entrp">     -4.82824859 </i>
    <i name="e_0_energy">     -4.82824859 </i>
   </energy>
  </scstep>
  <scstep>
   <time name="dav">    2.42    2.62</time>
   <time name="total">    2.63    2.83</time>
   <energy>
    <i name="e_fr_energy">    -24.60519716 </i>
    <i name="e_wo_entrp">    -24.60519716 </i>
    <i name="e_0_energy">    -24.60519716 </i>
   </energy>
  </scstep>
  <scstep>
   <time name="diag">    0.45    0.45</time>
   <time name="diis">    1.58    1.61</time>
   <time name="orth">    0.03    0.03</time>
   <time name="total">    2.68    2.82</time>
   <energy>
    <i name="e_fr_energy">    -23.54298234 </i>
    <i name="e_wo_entrp">    -23.54298234 </i>
    <i name="e_0_energy">    -23.54298234 </i>
   </energy>
  </scstep>
  <scstep>
   <time name="diag">    0.60    0.68</time>
   <time name="diis">    1.57    1.58</time>
   <time name="orth">    0.03    0.03</time>
   <time name="total">    2.83    2.91</time>
   <energy>
    <i name="e_fr_energy">    -23.38698588 </i>
    <i name="e_wo_entrp">    -23.38698588 </i>
    <i name="e_0_energy">    -23.38698588 </i>
   </energy>
  </scstep>
  <scstep>
   <time name="diag">    0.45    0.46</time>
   <time name="diis">    1.71    1.72</time>
   <time name="orth">    0.03    0.03</time>
   <time name="total">    2.82    2.85</time>
   <energy>
    <i name="e_fr_energy">    -23.36468097 </i>
    <i name="e_wo_entrp">    -23.36468097 </i>
    <i name="e_0_energy">    -23.36468097 </i>
   </energy>
  </scstep>
  <scstep>
   <time name="diag">    0.44    0.45</time>
   <time name="diis">    1.64    1.64</time>
   <time name="orth">    0.03    0.03</time>
   <time name="total">    2.91    2.96</time>
   <energy>
    <i name="e_fr_energy">    -23.36137378 </i>
    <i name="e_wo_entrp">    -23.36137378 </i>
    <i name="e_0_energy">    -23.36137378 </i>
   </energy>
  </scstep>
  <scstep>
   <time name="diag">    0.45    0.45</time>
   <time name="diis">    1.72    1.73</time>
   <time name="orth">    0.09    0.10</time>
   <time name="total">    2.91    3.02</time>
   <energy>
    <i name="e_fr_energy">    -23.36125265 </i>
    <i name="e_wo_entrp">    -23.36125265 </i>
    <i name="e_0_energy">    -23.36125265 </i>
   </energy>
  </scstep>
  <scstep>
   <time name="diag">    0.44    0.44</time>
   <time name="diis">    1.58    1.74</time>
   <time name="orth">    0.03    0.03</time>
   <time name="total">    2.68    2.84</time>
   <energy>
    <i name="e_fr_energy">    -23.36347746 </i>
    <i name="e_wo_entrp">    -23.36347746 </i>
    <i name="e_0_energy">    -23.36347746 </i>
   </energy>
  </scstep>
  <scstep>
   <time name="diag">    0.59    0.59</time>
   <time name="diis">    1.58    1.79</time>
   <time name="orth">    0.03    0.03</time>
   <time name="total">    2.83    3.04</time>
   <energy>
    <i name="e_fr_energy">    -23.36561947 </i>
    <i name="e_wo_entrp">    -23.36561947 </i>
    <i name="e_0_energy">    -23.36561947 </i>
   </energy>
  </scstep>
  <scstep>
   <time name="diag">    0.44    0.44</time>
   <time name="diis">    1.61    1.62</time>
   <time name="orth">    0.03    0.03</time>
   <time name="total">    2.71    2.73</time>
   <energy>
    <i name="e_fr_energy">    -23.36738943 </i>
    <i name="e_wo_entrp">    -23.36738943 </i>
    <i name="e_0_energy">    -23.36738943 </i>
   </energy>
  </scstep>
  <scstep>
   <time name="diag">    0.47    0.47</time>
   <time name="diis">    1.60    1.71</time>
   <time name="orth">    0.03    0.03</time>
   <time name="total">    2.75    2.94</time>
   <energy>
    <i name="e_fr_energy">    -23.36931279 </i>
    <i name="e_wo_entrp">    -23.36931279 </i>
    <i name="e_0_energy">    -23.36931279 </i>
   </energy>
  </scstep>
  <scstep>
   <time name="diag">    0.46    0.46</time>
   <time name="diis">    1.28    1.29</time>
   <time name="orth">    0.03    0.03</time>
   <time name="total">    2.40    2.56</time>
   <energy>
    <i name="e_fr_energy">    -23.37037363 </i>
    <i name="e_wo_entrp">    -23.37037363 </i>
    <i name="e_0_energy">    -23.37037363 </i>
   </energy>
  </scstep>
  <scstep>
   <time name="diag">    0.44    0.44</time>
   <time name="diis">    1.09    1.21</time>
   <time name="orth">    0.04    0.04</time>
   <time name="total">    2.23    2.35</time>
   <energy>
    <i name="e_fr_energy">    -23.37098772 </i>
    <i name="e_wo_entrp">    -23.37098772 </i>
    <i name="e_0_energy">    -23.37098772 </i>
   </energy>
  </scstep>
  <scstep>
   <time name="diag">    0.43    0.46</time>
   <time name="diis">    1.05    1.05</time>
   <time name="orth">    0.03    0.03</time>
   <time name="total">    2.15    2.19</time>
   <energy>
    <i name="e_fr_energy">    -23.37130589 </i>
    <i name="e_wo_entrp">    -23.37130589 </i>
    <i name="e_0_energy">    -23.37130589 </i>
   </energy>
  </scstep>
  <scstep>
   <time name="diag">    0.47    0.63</time>
   <time name="diis">    1.09    1.14</time>
   <time name="orth">    0.07    0.15</time>
   <time name="total">    2.27    2.56</time>
   <energy>
    <i name="e_fr_energy">    -23.37141111 </i>
    <i name="e_wo_entrp">    -23.37141111 </i>
    <i name="e_0_energy">    -23.37141111 </i>
   </energy>
  </scstep>
  <scstep>
   <time name="diag">    0.46    0.47</time>
   <time name="diis">    0.78    1.25</time>
   <time name="orth">    0.04    0.04</time>
   <time name="total">    1.91    2.40</time>
   <energy>
    <i name="e_fr_energy">    -23.37151467 </i>
    <i name="e_wo_entrp">    -23.37151467 </i>
    <i name="e_0_energy">    -23.37151467 </i>
   </energy>
  </scstep>
  <scstep>
   <time name="diag">    0.45    0.56</time>
   <time name="diis">    0.78    0.79</time>
   <time name="orth">    0.04    0.04</time>
   <time name="total">    1.92    2.03</time>
   <energy>
    <i name="e_fr_energy">    -23.37154279 </i>
    <i name="e_wo_entrp">    -23.37154279 </i>
    <i name="e_0_energy">    -23.37154279 </i>
   </energy>
  </scstep>
  <scstep>
   <time name="diag">    0.44    0.44</time>
   <time name="diis">    0.71    0.72</time>
   <time name="orth">    0.04    0.04</time>
   <time name="total">    1.95    2.06</time>
   <energy>
    <i name="e_fr_energy">    -23.37155699 </i>
    <i name="e_wo_entrp">    -23.37155699 </i>
    <i name="e_0_energy">    -23.37155699 </i>
   </energy>
  </scstep>
  <scstep>
   <time name="diag">    0.44    0.44</time>
   <time name="diis">    0.69    0.69</time>
   <time name="orth">    0.04    0.04</time>
   <time name="total">    1.59    1.59</time>
   <energy>
    <i name="alphaZ">     15.16568811 </i>
    <i name="ewald">  17572.95148928 </i>
    <i name="hartreedc"> -29455.57180023 </i>
    <i name="XCdc">   -141.33801324 </i>
    <i name="pawpsdc">  10451.50510199 </i>
    <i name="pawaedc">  -9911.61453968 </i>
    <i name="eentropy">     -0.00000000 </i>
    <i name="bandstr">  -1003.32142941 </i>
    <i name="atom">  12448.85194051 </i>
    <i name="e_fr_energy">    -23.37156266 </i>
    <i name="e_wo_entrp">    -23.37156266 </i>
    <i name="e_0_energy">    -23.37156266 </i>
   </energy>
  </scstep>
  <structure>
   <crystal>
    <varray name="basis" >
     <v>      25.09731200       0.00000000       0.00000000 </v>
     <v>       0.00000000      26.39702918       0.00000000 </v>
     <v>       0.00000000       0.00000000      25.45109991 </v>
    </varray>
    <i name="volume">  16861.21312721 </i>
    <varray name="rec_basis" >
     <v>       0.03984490       0.00000000       0.00000000 </v>
     <v>       0.00000000       0.03788305       0.00000000 </v>
     <v>       0.00000000       0.00000000       0.03929103 </v>
    </varray>
   </crystal>
   <varray name="positions" >
    <v>       0.49734997       0.55765583       0.69188359 </v>
    <v>       0.50761728       0.61063555       0.59573497 </v>
    <v>       0.70045188       0.61296600       0.48360206 </v>
    <v>       0.65737138       0.74923970       0.63488736 </v>
    <v>       0.51157334       0.50690071       0.59750783 </v>
    <v>       0.57228509       0.69157810       0.59902136 </v>
    <v>       0.59919182       0.60706074       0.53602151 </v>
    <v>       0.65619223       0.64707476       0.66256706 </v>
    <v>       0.54976231       0.64828746       0.69778140 </v>
    <v>       0.67763630       0.68369953       0.55704485 </v>
    <v>       0.69167401       0.57758777       0.58806905 </v>
    <v>       0.59750585       0.56134774       0.64095504 </v>
   </varray>
  </structure>
  <varray name="forces" >
   <v>      -0.08090029      -0.07581070       0.02526202 </v>
   <v>      -0.05295954      -0.05042628       0.13413965 </v>
   <v>      -0.00215923       0.02894883       0.00357283 </v>
   <v>       0.13650362       0.19763963       0.06601505 </v>
   <v>       0.09253737      -0.07014321       0.00544843 </v>
   <v>       0.06335863       0.16746852      -0.03984713 </v>
   <v>      -0.02934246      -0.04524282      -0.08486778 </v>
   <v>       0.00956300       0.02941412      -0.00310377 </v>
   <v>      -0.12183233      -0.09301809      -0.00701836 </v>
   <v>       0.07044214      -0.10757349      -0.08523069 </v>
   <v>       0.06490469       0.02325543      -0.07669731 </v>
   <v>      -0.15011559      -0.00451194       0.06232707 </v>
  </varray>
  <varray name="stress" >
   <v>       0.00744854       0.06433786      -0.05585958 </v>
   <v>       0.06433785       0.03872770      -0.00883371 </v>
   <v>      -0.05585958      -0.00883371      -0.02454009 </v>
  </varray>
  <energy>
   <i name="e_fr_energy">    -23.37156266 </i>
   <i name="e_wo_entrp">    -23.37156266 </i>
   <i name="e_0_energy">     -0.00000000 </i>
  </energy>
  <time name="totalsc">   60.96   64.46</time>
 </calculation>
 <calculation>
  <scstep>
   <time name="dav">    2.26    2.37</time>
   <time name="total">    2.92    3.13</time>
   <energy>
    <i name="alphaZ">     15.16568811 </i>
    <i name="ewald">  17545.16183263 </i>
    <i name="hartreedc"> -29427.91863313 </i>
    <i name="XCdc">   -141.38473897 </i>
    <i name="pawpsdc">  10451.50429948 </i>
    <i name="pawaedc">  -9911.61354023 </i>
    <i name="eentropy">     -0.00000000 </i>
    <i name="bandstr">  -1003.14674273 </i>
    <i name="atom">  12448.85194051 </i>
    <i name="e_fr_energy">    -23.37989432 </i>
    <i name="e_wo_entrp">    -23.37989432 </i>
    <i name="e_0_energy">    -23.37989432 </i>
   </energy>
  </scstep>
  <scstep>
   <time name="diag">    0.45    0.45</time>
   <time name="diis">    1.58    1.58</time>
   <time name="orth">    0.04    0.04</time>
   <time name="total">    2.66    2.71</time>
   <energy>
    <i name="e_fr_energy">    -23.38169756 </i>
    <i name="e_wo_entrp">    -23.38169756 </i>
    <i name="e_0_energy">    -23.38169756 </i>
   </energy>
  </scstep>
  <scstep>
   <time name="diag">    0.44    0.45</time>
   <time name="diis">    1.74    1.81</time>
   <time name="orth">    0.04    0.04</time>
   <time name="total">    3.02    3.10</time>
   <energy>
    <i name="e_fr_energy">    -23.38168584 </i>
    <i name="e_wo_entrp">    -23.38168584 </i>
    <i name="e_0_energy">    -23.38168584 </i>
   </energy>
  </scstep>
  <scstep>
   <time name="diag">    0.45    0.45</time>
   <time name="diis">    1.74    1.75</time>
   <time name="orth">    0.04    0.04</time>
   <time name="total">    2.86    2.87</time>
   <energy>
    <i name="e_fr_energy">    -23.38162280 </i>
    <i name="e_wo_entrp">    -23.38162280 </i>
    <i name="e_0_energy">    -23.38162280 </i>
   </energy>
  </scstep>
  <scstep>
   <time name="diag">    0.45    0.45</time>
   <time name="diis">    1.59    1.70</time>
   <time name="orth">    0.04    0.04</time>
   <time name="total">    2.49    2.61</time>
   <energy>
    <i name="alphaZ">     15.16568811 </i>
    <i name="ewald">  17545.16183263 </i>
    <i name="hartreedc"> -29428.34204696 </i>
    <i name="XCdc">   -141.37549530 </i>
    <i name="pawpsdc">  10450.18066882 </i>
    <i name="pawaedc">  -9910.18625596 </i>
    <i name="eentropy">     -0.00000000 </i>
    <i name="bandstr">  -1002.83795388 </i>
    <i name="atom">  12448.85194051 </i>
    <i name="e_fr_energy">    -23.38162203 </i>
    <i name="e_wo_entrp">    -23.38162203 </i>
    <i name="e_0_energy">    -23.38162203 </i>
   </energy>
  </scstep>
  <structure>
   <crystal>
    <varray name="basis" >
     <v>      25.09731200       0.00000000       0.00000000 </v>
     <v>       0.00000000      26.39702918       0.00000000 </v>
     <v>       0.00000000       0.00000000      25.45109991 </v>
    </varray>
    <i name="volume">  16861.21312721 </i>
    <varray name="rec_basis" >
     <v>       0.03984490       0.00000000       0.00000000 </v>
     <v>       0.00000000       0.03788305       0.00000000 </v>
     <v>       0.00000000       0.00000000       0.03929103 </v>
    </varray>
   </crystal>
   <varray name="positions" >
    <v>       0.49719446       0.55751728       0.69193148 </v>
    <v>       0.50751548       0.61054339       0.59598923 </v>
    <v>       0.70044773       0.61301891       0.48360883 </v>
    <v>       0.65763377       0.74960090       0.63501249 </v>
    <v>       0.51175122       0.50677252       0.59751816 </v>
    <v>       0.57240688       0.69188416       0.59894583 </v>
    <v>       0.59913542       0.60697806       0.53586064 </v>
    <v>       0.65621061       0.64712851       0.66256117 </v>
    <v>       0.54952812       0.64811746       0.69776810 </v>
    <v>       0.67777170       0.68350293       0.55688329 </v>
    <v>       0.69179877       0.57763028       0.58792367 </v>
    <v>       0.59721729       0.56133950       0.64107318 </v>
   </varray>
  </structure>
  <varray name="forces" >
   <v>      -0.09256428      -0.08117395       0.02945749 </v>
   <v>      -0.01492095      -0.01437206       0.11872021 </v>
   <v>       0.00459207       0.01403054      -0.02496659 </v>
   <v>       0.13744286       0.13969965       0.02582146 </v>
   <v>       0.08527214      -0.06833702      -0.00187580 </v>
   <v>       0.05710145       0.11505680      -0.02859046 </v>
   <v>      -0.04840954      -0.03955652      -0.05338156 </v>
   <v>      -0.00679810       0.02988770      -0.02277865 </v>
   <v>      -0.10383097      -0.07555532      -0.02095262 </v>
   <v>       0.04974605      -0.05461399      -0.02093607 </v>
   <v>       0.02646510       0.02132119      -0.04234454 </v>
   <v>      -0.09409585       0.01361298       0.04182712 </v>
  </varray>
  <varray name="stress" >
   <v>      -0.01249088       0.05775680      -0.04667176 </v>
   <v>       0.05775680       0.01749398      -0.01240046 </v>
   <v>      -0.04667176      -0.01240046      -0.04118750 </v>
  </varray>
  <energy>
   <i name="e_fr_energy">    -23.38162203 </i>
   <i name="e_wo_entrp">    -23.38162203 </i>
   <i name="e_0_energy">     -0.00000000 </i>
  </energy>
  <time name="totalsc">   17.99   18.56</time>
 </calculation>
 <calculation>
  <scstep>
   <time name="dav">    2.18    2.20</time>
   <time name="total">    2.84    3.03</time>
   <energy>
    <i name="alphaZ">     15.16568811 </i>
    <i name="ewald">  17467.25682872 </i>
    <i name="hartreedc"> -29350.74661508 </i>
    <i name="XCdc">   -141.50088900 </i>
    <i name="pawpsdc">  10450.19333295 </i>
    <i name="pawaedc">  -9910.20189564 </i>
    <i name="eentropy">     -0.00000000 </i>
    <i name="bandstr">  -1002.39710148 </i>
    <i name="atom">  12448.85194051 </i>
    <i name="e_fr_energy">    -23.37871091 </i>
    <i name="e_wo_entrp">    -23.37871091 </i>
    <i name="e_0_energy">    -23.37871091 </i>
   </energy>
  </scstep>
  <scstep>
   <time name="diag">    0.44    0.45</time>
   <time name="diis">    1.56    1.76</time>
   <time name="orth">    0.04    0.04</time>
   <time name="total">    2.63    3.02</time>
   <energy>
    <i name="e_fr_energy">    -23.39334848 </i>
    <i name="e_wo_entrp">    -23.39334848 </i>
    <i name="e_0_energy">    -23.39334848 </i>
   </energy>
  </scstep>
  <scstep>
   <time name="diag">    0.45    0.45</time>
   <time name="diis">    1.59    1.72</time>
   <time name="orth">    0.04    0.04</time>
   <time name="total">    2.69    2.83</time>
   <energy>
    <i name="e_fr_energy">    -23.39325817 </i>
    <i name="e_wo_entrp">    -23.39325817 </i>
    <i name="e_0_energy">    -23.39325817 </i>
   </energy>
  </scstep>
  <scstep>
   <time name="diag">    0.44    0.61</time>
   <time name="diis">    1.58    1.71</time>
   <time name="orth">    0.04    0.04</time>
   <time name="total">    2.67    2.99</time>
   <energy>
    <i name="e_fr_energy">    -23.39276092 </i>
    <i name="e_wo_entrp">    -23.39276092 </i>
    <i name="e_0_energy">    -23.39276092 </i>
   </energy>
  </scstep>
  <scstep>
   <time name="diag">    0.44    0.45</time>
   <time name="diis">    1.70    1.73</time>
   <time name="orth">    0.04    0.04</time>
   <time name="total">    2.81    2.84</time>
   <energy>
    <i name="e_fr_energy">    -23.39276620 </i>
    <i name="e_wo_entrp">    -23.39276620 </i>
    <i name="e_0_energy">    -23.39276620 </i>
   </energy>
  </scstep>
  <scstep>
   <time name="diag">    0.44    0.45</time>
   <time name="diis">    1.60    1.72</time>
   <time name="orth">    0.04    0.04</time>
   <time name="total">    2.69    2.86</time>
   <energy>
    <i name="e_fr_energy">    -23.39272832 </i>
    <i name="e_wo_entrp">    -23.39272832 </i>
    <i name="e_0_energy">    -23.39272832 </i>
   </energy>
  </scstep>
  <scstep>
   <time name="diag">    0.44    0.45</time>
   <time name="diis">    1.12    1.14</time>
   <time name="orth">    0.04    0.04</time>
   <time name="total">    2.04    2.07</time>
   <energy>
    <i name="alphaZ">     15.16568811 </i>
    <i name="ewald">  17467.25682872 </i>
    <i name="hartreedc"> -29351.86582124 </i>
    <i name="XCdc">   -141.47568635 </i>
    <i name="pawpsdc">  10446.79745267 </i>
    <i name="pawaedc">  -9906.53291293 </i>
    <i name="eentropy">     -0.00000000 </i>
    <i name="bandstr">  -1001.59022086 </i>
    <i name="atom">  12448.85194051 </i>
    <i name="e_fr_energy">    -23.39273135 </i>
    <i name="e_wo_entrp">    -23.39273135 </i>
    <i name="e_0_energy">    -23.39273135 </i>
   </energy>
  </scstep>
  <structure>
   <crystal>
    <varray name="basis" >
     <v>      25.09731200       0.00000000       0.00000000 </v>
     <v>       0.00000000      26.39702918       0.00000000 </v>
     <v>       0.00000000       0.00000000      25.45109991 </v>
    </varray>
    <i name="volume">  16861.21312721 </i>
    <varray name="rec_basis" >
     <v>       0.03984490       0.00000000       0.00000000 </v>
     <v>       0.00000000       0.03788305       0.00000000 </v>
     <v>       0.00000000       0.00000000       0.03929103 </v>
    </varray>
   </crystal>
   <varray name="positions" >
    <v>       0.49675473       0.55712550       0.69206688 </v>
    <v>       0.50722761       0.61028280       0.59670821 </v>
    <v>       0.70043599       0.61316851       0.48362798 </v>
    <v>       0.65837573       0.75062227       0.63536633 </v>
    <v>       0.51225421       0.50641003       0.59754736 </v>
    <v>       0.57275127       0.69274961       0.59873225 </v>
    <v>       0.59897593       0.60674425       0.53540576 </v>
    <v>       0.65626259       0.64728052       0.66254454 </v>
    <v>       0.54886590       0.64763675       0.69773048 </v>
    <v>       0.67815459       0.68294701       0.55642646 </v>
    <v>       0.69215156       0.57775046       0.58751258 </v>
    <v>       0.59640134       0.56131618       0.64140725 </v>
   </varray>
  </structure>
  <varray name="forces" >
   <v>      -0.12213674      -0.11484170       0.05537593 </v>
   <v>       0.07395645       0.09275892       0.04228778 </v>
   <v>       0.03197282      -0.03910036      -0.11125532 </v>
   <v>       0.12157239      -0.04839941      -0.09130436 </v>
   <v>       0.05985727      -0.07533948      -0.01800218 </v>
   <v>       0.05108793      -0.01099424       0.00318117 </v>
   <v>      -0.08550743      -0.00643043       0.04405568 </v>
   <v>      -0.05303533       0.03528759      -0.06779248 </v>
   <v>      -0.04798456      -0.02194486      -0.04640401 </v>
   <v>      -0.02867325       0.11394461       0.15737290 </v>
   <v>      -0.07857607       0.01130713       0.04845763 </v>
   <v>       0.07746653       0.06375222      -0.01597276 </v>
  </varray>
  <varray name="stress" >
   <v>      -0.06285852       0.03804561      -0.02271281 </v>
   <v>       0.03804561      -0.03224385      -0.02398838 </v>
   <v>      -0.02271281      -0.02398839      -0.07545872 </v>
  </varray>
  <energy>
   <i name="e_fr_energy">    -23.39273135 </i>
   <i name="e_wo_entrp">    -23.39273135 </i>
   <i name="e_0_energy">     -0.00000000 </i>
  </energy>
  <time name="totalsc">   22.35   23.81</time>
 </calculation>
 <calculation>
  <scstep>
   <time name="dav">    2.26    2.38</time>
   <time name="total">    3.02    3.15</time>
   <energy>
    <i name="alphaZ">     15.16568811 </i>
    <i name="ewald">  17444.74920843 </i>
    <i name="hartreedc"> -29329.50193957 </i>
    <i name="XCdc">   -141.51475401 </i>
    <i name="pawpsdc">  10446.78652616 </i>
    <i name="pawaedc">  -9906.52089985 </i>
    <i name="eentropy">     -0.00000000 </i>
    <i name="bandstr">  -1001.41395659 </i>
    <i name="atom">  12448.85194051 </i>
    <i name="e_fr_energy">    -23.39818679 </i>
    <i name="e_wo_entrp">    -23.39818679 </i>
    <i name="e_0_energy">    -23.39818679 </i>
   </energy>
  </scstep>
  <scstep>
   <time name="diag">    0.44    0.45</time>
   <time name="diis">    1.71    1.74</time>
   <time name="orth">    0.04    0.04</time>
   <time name="total">    2.81    2.88</time>
   <energy>
    <i name="e_fr_energy">    -23.40160630 </i>
    <i name="e_wo_entrp">    -23.40160630 </i>
    <i name="e_0_energy">    -23.40160630 </i>
   </energy>
  </scstep>
  <scstep>
   <time name="diag">    0.44    0.45</time>
   <time name="diis">    2.20    2.29</time>
   <time name="orth">    0.04    0.04</time>
   <time name="total">    3.30    3.40</time>
   <energy>
    <i name="e_fr_energy">    -23.40158460 </i>
    <i name="e_wo_entrp">    -23.40158460 </i>
    <i name="e_0_energy">    -23.40158460 </i>
   </energy>
  </scstep>
  <scstep>
   <time name="diag">    0.44    0.45</time>
   <time name="diis">    1.70    1.75</time>
   <time name="orth">    0.04    0.04</time>
   <time name="total">    2.80    2.86</time>
   <energy>
    <i name="e_fr_energy">    -23.40145059 </i>
    <i name="e_wo_entrp">    -23.40145059 </i>
    <i name="e_0_energy">    -23.40145059 </i>
   </energy>
  </scstep>
  <scstep>
   <time name="diag">    0.45    0.45</time>
   <time name="diis">    1.70    1.73</time>
   <time name="orth">    0.04    0.04</time>
   <time name="total">    2.80    2.85</time>
   <energy>
    <i name="e_fr_energy">    -23.40145963 </i>
    <i name="e_wo_entrp">    -23.40145963 </i>
    <i name="e_0_energy">    -23.40145963 </i>
   </energy>
  </scstep>
  <scstep>
   <time name="diag">    0.59    0.62</time>
   <time name="diis">    1.04    1.05</time>
   <time name="orth">    0.04    0.04</time>
   <time name="total">    2.08    2.13</time>
   <energy>
    <i name="alphaZ">     15.16568811 </i>
    <i name="ewald">  17444.74920843 </i>
    <i name="hartreedc"> -29329.89968721 </i>
    <i name="XCdc">   -141.50548592 </i>
    <i name="pawpsdc">  10445.76062500 </i>
    <i name="pawaedc">  -9905.40737780 </i>
    <i name="eentropy">     -0.00000000 </i>
    <i name="bandstr">  -1001.11636243 </i>
    <i name="atom">  12448.85194051 </i>
    <i name="e_fr_energy">    -23.40145131 </i>
    <i name="e_wo_entrp">    -23.40145131 </i>
    <i name="e_0_energy">    -23.40145131 </i>
   </energy>
  </scstep>
  <structure>
   <crystal>
    <varray name="basis" >
     <v>      25.09731200       0.00000000       0.00000000 </v>
     <v>       0.00000000      26.39702918       0.00000000 </v>
     <v>       0.00000000       0.00000000      25.45109991 </v>
    </varray>
    <i name="volume">  16861.21312721 </i>
    <varray name="rec_basis" >
     <v>       0.03984490       0.00000000       0.00000000 </v>
     <v>       0.00000000       0.03788305       0.00000000 </v>
     <v>       0.00000000       0.00000000       0.03929103 </v>
    </varray>
   </crystal>
   <varray name="positions" >
    <v>       0.49632177       0.55673890       0.69223962 </v>
    <v>       0.50730120       0.61039868       0.59704962 </v>
    <v>       0.70050616       0.61313319       0.48338001 </v>
    <v>       0.65891024       0.75086312       0.63527790 </v>
    <v>       0.51256423       0.50612052       0.59751612 </v>
    <v>       0.57298697       0.69301989       0.59866684 </v>
    <v>       0.59872331       0.60665050       0.53535172 </v>
    <v>       0.65615726       0.64741008       0.66238381 </v>
    <v>       0.54852924       0.64742477       0.69761154 </v>
    <v>       0.67821838       0.68300911       0.55663096 </v>
    <v>       0.69208936       0.57781629       0.58748352 </v>
    <v>       0.59630335       0.56144884       0.64148440 </v>
   </varray>
  </structure>
  <varray name="forces" >
   <v>      -0.09249325      -0.10068172       0.03214985 </v>
   <v>       0.07716835       0.07740631       0.02753297 </v>
   <v>       0.00524685      -0.01808101      -0.05776442 </v>
   <v>       0.10052957      -0.04652762      -0.07977712 </v>
   <v>       0.06053925      -0.03193192      -0.00591615 </v>
   <v>       0.03839326      -0.02946592       0.01240434 </v>
   <v>      -0.06004128       0.00792236       0.04868129 </v>
   <v>      -0.05541628       0.03763526      -0.05087448 </v>
   <v>      -0.04761596      -0.02350782      -0.05399454 </v>
   <v>      -0.01581524       0.06935243       0.10433056 </v>
   <v>      -0.08745811       0.01120987       0.03243053 </v>
   <v>       0.07696285       0.04666978      -0.00920283 </v>
  </varray>
  <varray name="stress" >
   <v>      -0.07577342       0.02916582      -0.01459374 </v>
   <v>       0.02916582      -0.05568315      -0.02566824 </v>
   <v>      -0.01459374      -0.02566823      -0.08723970 </v>
  </varray>
  <energy>
   <i name="e_fr_energy">    -23.40145131 </i>
   <i name="e_wo_entrp">    -23.40145131 </i>
   <i name="e_0_energy">     -0.00000000 </i>
  </energy>
  <time name="totalsc">   20.91   21.57</time>
 </calculation>
 <calculation>
  <scstep>
   <time name="dav">    2.24    2.39</time>
   <time name="total">    2.86    3.02</time>
   <energy>
    <i name="alphaZ">     15.16568811 </i>
    <i name="ewald">  17406.41794577 </i>
    <i name="hartreedc"> -29291.76115635 </i>
    <i name="XCdc">   -141.57038647 </i>
    <i name="pawpsdc">  10445.72824562 </i>
    <i name="pawaedc">  -9905.37310994 </i>
    <i name="eentropy">     -0.00000000 </i>
    <i name="bandstr">  -1000.85992981 </i>
    <i name="atom">  12448.85194051 </i>
    <i name="e_fr_energy">    -23.40076256 </i>
    <i name="e_wo_entrp">    -23.40076256 </i>
    <i name="e_0_energy">    -23.40076256 </i>
   </energy>
  </scstep>
  <scstep>
   <time name="diag">    0.44    0.45</time>
   <time name="diis">    1.71    1.74</time>
   <time name="orth">    0.03    0.03</time>
   <time name="total">    2.80    2.86</time>
   <energy>
    <i name="e_fr_energy">    -23.41073888 </i>
    <i name="e_wo_entrp">    -23.41073888 </i>
    <i name="e_0_energy">    -23.41073888 </i>
   </energy>
  </scstep>
  <scstep>
   <time name="diag">    0.44    0.45</time>
   <time name="diis">    1.61    1.85</time>
   <time name="orth">    0.03    0.03</time>
   <time name="total">    2.71    2.96</time>
   <energy>
    <i name="e_fr_energy">    -23.41067481 </i>
    <i name="e_wo_entrp">    -23.41067481 </i>
    <i name="e_0_energy">    -23.41067481 </i>
   </energy>
  </scstep>
  <scstep>
   <time name="diag">    0.58    0.61</time>
   <time name="diis">    1.57    1.58</time>
   <time name="orth">    0.03    0.03</time>
   <time name="total">    2.79    2.86</time>
   <energy>
    <i name="e_fr_energy">    -23.41028040 </i>
    <i name="e_wo_entrp">    -23.41028040 </i>
    <i name="e_0_energy">    -23.41028040 </i>
   </energy>
  </scstep>
  <scstep>
   <time name="diag">    0.44    0.45</time>
   <time name="diis">    1.55    1.78</time>
   <time name="orth">    0.03    0.03</time>
   <time name="total">    2.65    2.91</time>
   <energy>
    <i name="e_fr_energy">    -23.41029458 </i>
    <i name="e_wo_entrp">    -23.41029458 </i>
    <i name="e_0_energy">    -23.41029458 </i>
   </energy>
  </scstep>
  <scstep>
   <time name="diag">    0.44    0.45</time>
   <time name="diis">    1.55    1.57</time>
   <time name="orth">    0.03    0.03</time>
   <time name="total">    2.79    2.82</time>
   <energy>
    <i name="e_fr_energy">    -23.41026739 </i>
    <i name="e_wo_entrp">    -23.41026739 </i>
    <i name="e_0_energy">    -23.41026739 </i>
   </energy>
  </scstep>
  <scstep>
   <time name="diag">    0.55    0.68</time>
   <time name="diis">    0.97    1.00</time>
   <time name="orth">    0.03    0.03</time>
   <time name="total">    2.01    2.17</time>
   <energy>
    <i name="alphaZ">     15.16568811 </i>
    <i name="ewald">  17406.41794577 </i>
    <i name="hartreedc"> -29292.37542048 </i>
    <i name="XCdc">   -141.55526474 </i>
    <i name="pawpsdc">  10444.06167524 </i>
    <i name="pawaedc">  -9903.56115618 </i>
    <i name="eentropy">     -0.00000000 </i>
    <i name="bandstr">  -1000.41568030 </i>
    <i name="atom">  12448.85194051 </i>
    <i name="e_fr_energy">    -23.41027206 </i>
    <i name="e_wo_entrp">    -23.41027206 </i>
    <i name="e_0_energy">    -23.41027206 </i>
   </energy>
  </scstep>
  <structure>
   <crystal>
    <varray name="basis" >
     <v>      25.09731200       0.00000000       0.00000000 </v>
     <v>       0.00000000      26.39702918       0.00000000 </v>
     <v>       0.00000000       0.00000000      25.45109991 </v>
    </varray>
    <i name="volume">  16861.21312721 </i>
    <varray name="rec_basis" >
     <v>       0.03984490       0.00000000       0.00000000 </v>
     <v>       0.00000000       0.03788305       0.00000000 </v>
     <v>       0.00000000       0.00000000       0.03929103 </v>
    </varray>
   </crystal>
   <varray name="positions" >
    <v>       0.49558546       0.55608143       0.69253340 </v>
    <v>       0.50742635       0.61059577       0.59763023 </v>
    <v>       0.70062550       0.61307312       0.48295831 </v>
    <v>       0.65981924       0.75127272       0.63512751 </v>
    <v>       0.51309146       0.50562815       0.59746299 </v>
    <v>       0.57338782       0.69347955       0.59855561 </v>
    <v>       0.59829368       0.60649106       0.53525983 </v>
    <v>       0.65597812       0.64763040       0.66211047 </v>
    <v>       0.54795668       0.64706425       0.69740925 </v>
    <v>       0.67832687       0.68311473       0.55697875 </v>
    <v>       0.69198356       0.57792826       0.58743410 </v>
    <v>       0.59613671       0.56167446       0.64161561 </v>
   </varray>
  </structure>
  <varray name="forces" >
   <v>      -0.04925061      -0.08645911      -0.01467028 </v>
   <v>       0.06883378       0.04527973       0.01173143 </v>
   <v>      -0.03228595       0.01029140       0.02233117 </v>
   <v>       0.07344660      -0.06251027      -0.06953068 </v>
   <v>       0.05838922       0.04215313       0.01122334 </v>
   <v>       0.00861988      -0.05449261       0.02502143 </v>
   <v>      -0.01909962       0.02496980       0.05907151 </v>
   <v>      -0.06155127       0.04212048      -0.01847792 </v>
   <v>      -0.03034434      -0.00575521      -0.05416075 </v>
   <v>       0.00547156       0.00136985       0.01581703 </v>
   <v>      -0.09883835       0.01396036       0.00886976 </v>
   <v>       0.07660910       0.02907246       0.00277397 </v>
  </varray>
  <varray name="stress" >
   <v>      -0.09465852       0.01308047      -0.00155469 </v>
   <v>       0.01308047      -0.08833716      -0.02721866 </v>
   <v>      -0.00155469      -0.02721866      -0.10124982 </v>
  </varray>
  <energy>
   <i name="e_fr_energy">    -23.41027206 </i>
   <i name="e_wo_entrp">    -23.41027206 </i>
   <i name="e_0_energy">     -0.00000000 </i>
  </energy>
  <time name="totalsc">   22.73   23.94</time>
 </calculation>
 <calculation>
  <scstep>
   <time name="dav">    2.22    2.27</time>
   <time name="total">    2.83    3.01</time>
   <energy>
    <i name="alphaZ">     15.16568811 </i>
    <i name="ewald">  17329.58390381 </i>
    <i name="hartreedc"> -29215.88736188 </i>
    <i name="XCdc">   -141.67644013 </i>
    <i name="pawpsdc">  10444.06268999 </i>
    <i name="pawaedc">  -9903.56169843 </i>
    <i name="eentropy">     -0.00000000 </i>
    <i name="bandstr">   -999.90600102 </i>
    <i name="atom">  12448.85194051 </i>
    <i name="e_fr_energy">    -23.36727903 </i>
    <i name="e_wo_entrp">    -23.36727903 </i>
    <i name="e_0_energy">    -23.36727903 </i>
   </energy>
  </scstep>
  <scstep>
   <time name="diag">    0.44    0.45</time>
   <time name="diis">    1.59    1.77</time>
   <time name="orth">    0.03    0.03</time>
   <time name="total">    2.69    2.88</time>
   <energy>
    <i name="e_fr_energy">    -23.40882353 </i>
    <i name="e_wo_entrp">    -23.40882353 </i>
    <i name="e_0_energy">    -23.40882353 </i>
   </energy>
  </scstep>
  <scstep>
   <time name="diag">    0.54    0.55</time>
   <time name="diis">    1.58    1.60</time>
   <time name="orth">    0.03    0.03</time>
   <time name="total">    2.77    2.81</time>
   <energy>
    <i name="e_fr_energy">    -23.40851591 </i>
    <i name="e_wo_entrp">    -23.40851591 </i>
    <i name="e_0_energy">    -23.40851591 </i>
   </energy>
  </scstep>
  <scstep>
   <time name="diag">    0.44    0.45</time>
   <time name="diis">    1.59    1.76</time>
   <time name="orth">    0.03    0.03</time>
   <time name="total">    2.80    3.05</time>
   <energy>
    <i name="e_fr_energy">    -23.40700108 </i>
    <i name="e_wo_entrp">    -23.40700108 </i>
    <i name="e_0_energy">    -23.40700108 </i>
   </energy>
  </scstep>
  <scstep>
   <time name="diag">    0.44    0.45</time>
   <time name="diis">    1.59    1.61</time>
   <time name="orth">    0.03    0.03</time>
   <time name="total">    2.69    2.72</time>
   <energy>
    <i name="e_fr_energy">    -23.40691943 </i>
    <i name="e_wo_entrp">    -23.40691943 </i>
    <i name="e_0_energy">    -23.40691943 </i>
   </energy>
  </scstep>
  <scstep>
   <time name="diag">    0.54    0.68</time>
   <time name="diis">    1.70    1.73</time>
   <time name="orth">    0.03    0.04</time>
   <time name="total">    2.89    3.08</time>
   <energy>
    <i name="e_fr_energy">    -23.40683252 </i>
    <i name="e_wo_entrp">    -23.40683252 </i>
    <i name="e_0_energy">    -23.40683252 </i>
   </energy>
  </scstep>
  <scstep>
   <time name="diag">    0.45    0.46</time>
   <time name="diis">    1.09    1.10</time>
   <time name="orth">    0.03    0.03</time>
   <time name="total">    2.20    2.23</time>
   <energy>
    <i name="e_fr_energy">    -23.40684458 </i>
    <i name="e_wo_entrp">    -23.40684458 </i>
    <i name="e_0_energy">    -23.40684458 </i>
   </energy>
  </scstep>
  <scstep>
   <time name="diag">    0.57    0.63</time>
   <time name="diis">    1.27    1.35</time>
   <time name="orth">    0.03    0.03</time>
   <time name="total">    2.28    2.44</time>
   <energy>
    <i name="alphaZ">     15.16568811 </i>
    <i name="ewald">  17329.58390381 </i>
    <i name="hartreedc"> -29217.01778361 </i>
    <i name="XCdc">   -141.64788042 </i>
    <i name="pawpsdc">  10441.28205991 </i>
    <i name="pawaedc">  -9900.51030111 </i>
    <i name="eentropy">     -0.00000000 </i>
    <i name="bandstr">   -999.11448121 </i>
    <i name="atom">  12448.85194051 </i>
    <i name="e_fr_energy">    -23.40685400 </i>
    <i name="e_wo_entrp">    -23.40685400 </i>
    <i name="e_0_energy">    -23.40685400 </i>
   </energy>
  </scstep>
  <structure>
   <crystal>
    <varray name="basis" >
     <v>      25.09731200       0.00000000       0.00000000 </v>
     <v>       0.00000000      26.39702918       0.00000000 </v>
     <v>       0.00000000       0.00000000      25.45109991 </v>
    </varray>
    <i name="volume">  16861.21312721 </i>
    <varray name="rec_basis" >
     <v>       0.03984490       0.00000000       0.00000000 </v>
     <v>       0.00000000       0.03788305       0.00000000 </v>
     <v>       0.00000000       0.00000000       0.03929103 </v>
    </varray>
   </crystal>
   <varray name="positions" >
    <v>       0.49411284       0.55476648       0.69312096 </v>
    <v>       0.50767664       0.61098993       0.59879146 </v>
    <v>       0.70086417       0.61295299       0.48211491 </v>
    <v>       0.66163724       0.75209192       0.63482673 </v>
    <v>       0.51414593       0.50464342       0.59735674 </v>
    <v>       0.57418952       0.69439885       0.59833314 </v>
    <v>       0.59743444       0.60617219       0.53507605 </v>
    <v>       0.65561986       0.64807106       0.66156378 </v>
    <v>       0.54681157       0.64634321       0.69700468 </v>
    <v>       0.67854384       0.68332596       0.55767433 </v>
    <v>       0.69177198       0.57815219       0.58733525 </v>
    <v>       0.59580342       0.56212569       0.64187803 </v>
   </varray>
  </structure>
  <varray name="forces" >
   <v>       0.03757156      -0.04148009      -0.10915742 </v>
   <v>       0.01343685      -0.01585515      -0.04579531 </v>
   <v>      -0.10102078       0.06720414       0.17269354 </v>
   <v>       0.03850555      -0.05635104      -0.04868465 </v>
   <v>       0.06247191       0.17255472       0.05469819 </v>
   <v>      -0.04099817      -0.09370044       0.05085577 </v>
   <v>       0.05950291       0.05376185       0.08348900 </v>
   <v>      -0.06989593       0.04637745       0.04684494 </v>
   <v>      -0.00230947      -0.00288384      -0.02033274 </v>
   <v>       0.04532892      -0.12308282      -0.15860739 </v>
   <v>      -0.12337626       0.02386103      -0.03717528 </v>
   <v>       0.08078290      -0.03040581       0.01117135 </v>
  </varray>
  <varray name="stress" >
   <v>      -0.12793826      -0.01697062       0.02749164 </v>
   <v>      -0.01697062      -0.15280160      -0.02873586 </v>
   <v>       0.02749164      -0.02873586      -0.12490717 </v>
  </varray>
  <energy>
   <i name="e_fr_energy">    -23.40685400 </i>
   <i name="e_wo_entrp">    -23.40685400 </i>
   <i name="e_0_energy">     -0.00000000 </i>
  </energy>
  <time name="totalsc">   25.65   26.91</time>
 </calculation>
 <calculation>
  <scstep>
   <time name="dav">    2.15    2.17</time>
   <time name="total">    2.79    2.92</time>
   <energy>
    <i name="alphaZ">     15.16568811 </i>
    <i name="ewald">  17378.24989951 </i>
    <i name="hartreedc"> -29265.62003958 </i>
    <i name="XCdc">   -141.56836519 </i>
    <i name="pawpsdc">  10441.27459248 </i>
    <i name="pawaedc">  -9900.50089927 </i>
    <i name="eentropy">     -0.00000000 </i>
    <i name="bandstr">   -999.24915759 </i>
    <i name="atom">  12448.85194051 </i>
    <i name="e_fr_energy">    -23.39634101 </i>
    <i name="e_wo_entrp">    -23.39634101 </i>
    <i name="e_0_energy">    -23.39634101 </i>
   </energy>
  </scstep>
  <scstep>
   <time name="diag">    0.44    0.46</time>
   <time name="diis">    1.67    1.84</time>
   <time name="orth">    0.03    0.03</time>
   <time name="total">    2.76    2.97</time>
   <energy>
    <i name="e_fr_energy">    -23.41294043 </i>
    <i name="e_wo_entrp">    -23.41294043 </i>
    <i name="e_0_energy">    -23.41294043 </i>
   </energy>
  </scstep>
  <scstep>
   <time name="diag">    0.44    0.45</time>
   <time name="diis">    1.61    1.63</time>
   <time name="orth">    0.03    0.03</time>
   <time name="total">    2.70    2.77</time>
   <energy>
    <i name="e_fr_energy">    -23.41284783 </i>
    <i name="e_wo_entrp">    -23.41284783 </i>
    <i name="e_0_energy">    -23.41284783 </i>
   </energy>
  </scstep>
  <scstep>
   <time name="diag">    0.44    0.60</time>
   <time name="diis">    1.70    1.73</time>
   <time name="orth">    0.03    0.03</time>
   <time name="total">    2.80    2.99</time>
   <energy>
    <i name="e_fr_energy">    -23.41231427 </i>
    <i name="e_wo_entrp">    -23.41231427 </i>
    <i name="e_0_energy">    -23.41231427 </i>
   </energy>
  </scstep>
  <scstep>
   <time name="diag">    0.47    0.48</time>
   <time name="diis">    1.56    1.58</time>
   <time name="orth">    0.03    0.03</time>
   <time name="total">    2.69    2.73</time>
   <energy>
    <i name="e_fr_energy">    -23.41230083 </i>
    <i name="e_wo_entrp">    -23.41230083 </i>
    <i name="e_0_energy">    -23.41230083 </i>
   </energy>
  </scstep>
  <scstep>
   <time name="diag">    0.44    0.45</time>
   <time name="diis">    1.65    1.68</time>
   <time name="orth">    0.03    0.03</time>
   <time name="total">    2.82    3.01</time>
   <energy>
    <i name="e_fr_energy">    -23.41226692 </i>
    <i name="e_wo_entrp">    -23.41226692 </i>
    <i name="e_0_energy">    -23.41226692 </i>
   </energy>
  </scstep>
  <scstep>
   <time name="diag">    0.44    0.45</time>
   <time name="diis">    0.99    1.00</time>
   <time name="orth">    0.03    0.03</time>
   <time name="total">    1.90    1.93</time>
   <energy>
    <i name="alphaZ">     15.16568811 </i>
    <i name="ewald">  17378.24989951 </i>
    <i name="hartreedc"> -29264.92176501 </i>
    <i name="XCdc">   -141.58959064 </i>
    <i name="pawpsdc">  10442.92729815 </i>
    <i name="pawaedc">  -9902.32255860 </i>
    <i name="eentropy">     -0.00000000 </i>
    <i name="bandstr">   -999.77318105 </i>
    <i name="atom">  12448.85194051 </i>
    <i name="e_fr_energy">    -23.41226901 </i>
    <i name="e_wo_entrp">    -23.41226901 </i>
    <i name="e_0_energy">    -23.41226901 </i>
   </energy>
  </scstep>
  <structure>
   <crystal>
    <varray name="basis" >
     <v>      25.09731200       0.00000000       0.00000000 </v>
     <v>       0.00000000      26.39702918       0.00000000 </v>
     <v>       0.00000000       0.00000000      25.45109991 </v>
    </varray>
    <i name="volume">  16861.21312721 </i>
    <varray name="rec_basis" >
     <v>       0.03984490       0.00000000       0.00000000 </v>
     <v>       0.00000000       0.03788305       0.00000000 </v>
     <v>       0.00000000       0.00000000       0.03929103 </v>
    </varray>
   </crystal>
   <varray name="positions" >
    <v>       0.49504512       0.55559894       0.69274899 </v>
    <v>       0.50751819       0.61074039       0.59805632 </v>
    <v>       0.70071307       0.61302904       0.48264885 </v>
    <v>       0.66048631       0.75157330       0.63501714 </v>
    <v>       0.51347837       0.50526683       0.59742401 </v>
    <v>       0.57368198       0.69381686       0.59847398 </v>
    <v>       0.59797841       0.60637406       0.53519240 </v>
    <v>       0.65584667       0.64779209       0.66190987 </v>
    <v>       0.54753651       0.64679968       0.69726080 </v>
    <v>       0.67840648       0.68319223       0.55723398 </v>
    <v>       0.69190593       0.57801042       0.58739783 </v>
    <v>       0.59601442       0.56184003       0.64171190 </v>
   </varray>
  </structure>
  <varray name="forces" >
   <v>      -0.01956494      -0.06804753      -0.06209964 </v>
   <v>       0.05028355       0.02009496      -0.00795818 </v>
   <v>      -0.06165509       0.03242023       0.08292546 </v>
   <v>       0.07063463      -0.05620554      -0.05916925 </v>
   <v>       0.05615115       0.09194733       0.03092667 </v>
   <v>      -0.00601052      -0.06788982       0.03729405 </v>
   <v>       0.00642114       0.03335206       0.06554876 </v>
   <v>      -0.06441192       0.04636720       0.00559017 </v>
   <v>      -0.02333974      -0.00984240      -0.04318134 </v>
   <v>       0.02115279      -0.04537586      -0.05115221 </v>
   <v>      -0.10627217       0.01651037      -0.00581947 </v>
   <v>       0.07661112       0.00666900       0.00709499 </v>
  </varray>
  <varray name="stress" >
   <v>      -0.10813005       0.00296879       0.00987589 </v>
   <v>       0.00296879      -0.11141433      -0.02848925 </v>
   <v>       0.00987589      -0.02848926      -0.11148359 </v>
  </varray>
  <energy>
   <i name="e_fr_energy">    -23.41226901 </i>
   <i name="e_wo_entrp">    -23.41226901 </i>
   <i name="e_0_energy">     -0.00000000 </i>
  </energy>
  <time name="totalsc">   22.62   23.70</time>
 </calculation>
 <calculation>
  <scstep>
   <time name="dav">    2.33    2.54</time>
   <time name="total">    2.96    3.17</time>
   <energy>
    <i name="alphaZ">     15.16568811 </i>
    <i name="ewald">  17413.51609302 </i>
    <i name="hartreedc"> -29299.98342965 </i>
    <i name="XCdc">   -141.51924807 </i>
    <i name="pawpsdc">  10442.93914187 </i>
    <i name="pawaedc">  -9902.33488445 </i>
    <i name="eentropy">     -0.00000000 </i>
    <i name="bandstr">  -1000.05089109 </i>
    <i name="atom">  12448.85194051 </i>
    <i name="e_fr_energy">    -23.41558974 </i>
    <i name="e_wo_entrp">    -23.41558974 </i>
    <i name="e_0_energy">    -23.41558974 </i>
   </energy>
  </scstep>
  <scstep>
   <time name="diag">    0.48    0.48</time>
   <time name="diis">    1.56    1.59</time>
   <time name="orth">    0.03    0.03</time>
   <time name="total">    2.70    2.73</time>
   <energy>
    <i name="e_fr_energy">    -23.41942320 </i>
    <i name="e_wo_entrp">    -23.41942320 </i>
    <i name="e_0_energy">    -23.41942320 </i>
   </energy>
  </scstep>
  <scstep>
   <time name="diag">    0.60    0.67</time>
   <time name="diis">    1.58    1.77</time>
   <time name="orth">    0.03    0.03</time>
   <time name="total">    2.87    3.14</time>
   <energy>
    <i name="e_fr_energy">    -23.41940584 </i>
    <i name="e_wo_entrp">    -23.41940584 </i>
    <i name="e_0_energy">    -23.41940584 </i>
   </energy>
  </scstep>
  <scstep>
   <time name="diag">    0.48    0.59</time>
   <time name="diis">    1.56    1.57</time>
   <time name="orth">    0.03    0.03</time>
   <time name="total">    2.69    2.84</time>
   <energy>
    <i name="e_fr_energy">    -23.41927536 </i>
    <i name="e_wo_entrp">    -23.41927536 </i>
    <i name="e_0_energy">    -23.41927536 </i>
   </energy>
  </scstep>
  <scstep>
   <time name="diag">    0.43    0.61</time>
   <time name="diis">    1.58    1.60</time>
   <time name="orth">    0.03    0.03</time>
   <time name="total">    2.73    3.12</time>
   <energy>
    <i name="e_fr_energy">    -23.41929237 </i>
    <i name="e_wo_entrp">    -23.41929237 </i>
    <i name="e_0_energy">    -23.41929237 </i>
   </energy>
  </scstep>
  <scstep>
   <time name="diag">    0.44    0.45</time>
   <time name="diis">    1.01    1.02</time>
   <time name="orth">    0.03    0.03</time>
   <time name="total">    2.11    2.13</time>
   <energy>
    <i name="e_fr_energy">    -23.41928154 </i>
    <i name="e_wo_entrp">    -23.41928154 </i>
    <i name="e_0_energy">    -23.41928154 </i>
   </energy>
  </scstep>
  <scstep>
   <time name="diag">    0.43    0.61</time>
   <time name="diis">    0.97    0.98</time>
   <time name="orth">    0.03    0.04</time>
   <time name="total">    1.90    2.20</time>
   <energy>
    <i name="alphaZ">     15.16568811 </i>
    <i name="ewald">  17413.51609302 </i>
    <i name="hartreedc"> -29299.50339564 </i>
    <i name="XCdc">   -141.53437322 </i>
    <i name="pawpsdc">  10444.62839997 </i>
    <i name="pawaedc">  -9904.16247012 </i>
    <i name="eentropy">     -0.00000000 </i>
    <i name="bandstr">  -1000.38116528 </i>
    <i name="atom">  12448.85194051 </i>
    <i name="e_fr_energy">    -23.41928263 </i>
    <i name="e_wo_entrp">    -23.41928263 </i>
    <i name="e_0_energy">    -23.41928263 </i>
   </energy>
  </scstep>
  <structure>
   <crystal>
    <varray name="basis" >
     <v>      25.09731200       0.00000000       0.00000000 </v>
     <v>       0.00000000      26.39702918       0.00000000 </v>
     <v>       0.00000000       0.00000000      25.45109991 </v>
    </varray>
    <i name="volume">  16861.21312721 </i>
    <varray name="rec_basis" >
     <v>       0.03984490       0.00000000       0.00000000 </v>
     <v>       0.00000000       0.03788305       0.00000000 </v>
     <v>       0.00000000       0.00000000       0.03929103 </v>
    </varray>
   </crystal>
   <varray name="positions" >
    <v>       0.49471583       0.55513076       0.69262577 </v>
    <v>       0.50774731       0.61087967       0.59823015 </v>
    <v>       0.70052739       0.61312173       0.48280312 </v>
    <v>       0.66106423       0.75151929       0.63474946 </v>
    <v>       0.51386956       0.50541725       0.59751791 </v>
    <v>       0.57379981       0.69373937       0.59857074 </v>
    <v>       0.59785205       0.60643531       0.53539866 </v>
    <v>       0.65554658       0.64803160       0.66183474 </v>
    <v>       0.54725049       0.64663927       0.69703314 </v>
    <v>       0.67852237       0.68307003       0.55716943 </v>
    <v>       0.69147710       0.57810741       0.58735941 </v>
    <v>       0.59623873       0.56194220       0.64178352 </v>
   </varray>
  </structure>
  <varray name="forces" >
   <v>       0.00940719      -0.03330170      -0.05281178 </v>
   <v>       0.00228318      -0.00395195      -0.01229125 </v>
   <v>      -0.04466193       0.01148492       0.04619459 </v>
   <v>       0.05252671      -0.03647536      -0.05867591 </v>
   <v>       0.05997894       0.07841788       0.00970864 </v>
   <v>       0.00010102      -0.02352401       0.03062363 </v>
   <v>       0.00578289       0.02271756       0.03302877 </v>
   <v>      -0.04133240       0.03923037       0.02434373 </v>
   <v>      -0.03579839      -0.02014798      -0.00909146 </v>
   <v>       0.01395732      -0.02440465      -0.04324569 </v>
   <v>      -0.06869348       0.00281795      -0.00290071 </v>
   <v>       0.04644896      -0.01286303       0.03511744 </v>
  </varray>
  <varray name="stress" >
   <v>      -0.08635272      -0.00155429       0.00940633 </v>
   <v>      -0.00155428      -0.09029068      -0.01861165 </v>
   <v>       0.00940633      -0.01861165      -0.08135453 </v>
  </varray>
  <energy>
   <i name="e_fr_energy">    -23.41928263 </i>
   <i name="e_wo_entrp">    -23.41928263 </i>
   <i name="e_0_energy">     -0.00000000 </i>
  </energy>
  <time name="totalsc">   22.04   23.70</time>
 </calculation>
 <calculation>
  <scstep>
   <time name="dav">    2.11    2.14</time>
   <time name="total">    2.77    2.81</time>
   <energy>
    <i name="alphaZ">     15.16568811 </i>
    <i name="ewald">  17464.92566467 </i>
    <i name="hartreedc"> -29350.60760307 </i>
    <i name="XCdc">   -141.43010784 </i>
    <i name="pawpsdc">  10444.64448594 </i>
    <i name="pawaedc">  -9904.17909233 </i>
    <i name="eentropy">     -0.00000000 </i>
    <i name="bandstr">  -1000.78700870 </i>
    <i name="atom">  12448.85194051 </i>
    <i name="e_fr_energy">    -23.41603270 </i>
    <i name="e_wo_entrp">    -23.41603270 </i>
    <i name="e_0_energy">    -23.41603270 </i>
   </energy>
  </scstep>
  <scstep>
   <time name="diag">    0.44    0.45</time>
   <time name="diis">    1.58    1.88</time>
   <time name="orth">    0.03    0.03</time>
   <time name="total">    2.68    2.99</time>
   <energy>
    <i name="e_fr_energy">    -23.42426827 </i>
    <i name="e_wo_entrp">    -23.42426827 </i>
    <i name="e_0_energy">    -23.42426827 </i>
   </energy>
  </scstep>
  <scstep>
   <time name="diag">    0.45    0.45</time>
   <time name="diis">    1.58    1.60</time>
   <time name="orth">    0.03    0.03</time>
   <time name="total">    2.70    2.75</time>
   <energy>
    <i name="e_fr_energy">    -23.42422051 </i>
    <i name="e_wo_entrp">    -23.42422051 </i>
    <i name="e_0_energy">    -23.42422051 </i>
   </energy>
  </scstep>
  <scstep>
   <time name="diag">    0.59    0.67</time>
   <time name="diis">    1.61    1.79</time>
   <time name="orth">    0.03    0.03</time>
   <time name="total">    2.85    3.14</time>
   <energy>
    <i name="e_fr_energy">    -23.42392081 </i>
    <i name="e_wo_entrp">    -23.42392081 </i>
    <i name="e_0_energy">    -23.42392081 </i>
   </energy>
  </scstep>
  <scstep>
   <time name="diag">    0.91    0.94</time>
   <time name="diis">    1.55    1.57</time>
   <time name="orth">    0.08    0.19</time>
   <time name="total">    3.22    3.50</time>
   <energy>
    <i name="e_fr_energy">    -23.42394314 </i>
    <i name="e_wo_entrp">    -23.42394314 </i>
    <i name="e_0_energy">    -23.42394314 </i>
   </energy>
  </scstep>
  <scstep>
   <time name="diag">    0.44    0.45</time>
   <time name="diis">    1.34    1.36</time>
   <time name="orth">    0.03    0.03</time>
   <time name="total">    2.47    2.51</time>
   <energy>
    <i name="e_fr_energy">    -23.42392361 </i>
    <i name="e_wo_entrp">    -23.42392361 </i>
    <i name="e_0_energy">    -23.42392361 </i>
   </energy>
  </scstep>
  <scstep>
   <time name="diag">    0.46    0.46</time>
   <time name="diis">    0.94    0.95</time>
   <time name="orth">    0.03    0.03</time>
   <time name="total">    1.85    1.87</time>
   <energy>
    <i name="alphaZ">     15.16568811 </i>
    <i name="ewald">  17464.92566467 </i>
    <i name="hartreedc"> -29349.90857839 </i>
    <i name="XCdc">   -141.45231328 </i>
    <i name="pawpsdc">  10447.24336997 </i>
    <i name="pawaedc">  -9906.98499852 </i>
    <i name="eentropy">     -0.00000000 </i>
    <i name="bandstr">  -1001.26470091 </i>
    <i name="atom">  12448.85194051 </i>
    <i name="e_fr_energy">    -23.42392784 </i>
    <i name="e_wo_entrp">    -23.42392784 </i>
    <i name="e_0_energy">    -23.42392784 </i>
   </energy>
  </scstep>
  <structure>
   <crystal>
    <varray name="basis" >
     <v>      25.09731200       0.00000000       0.00000000 </v>
     <v>       0.00000000      26.39702918       0.00000000 </v>
     <v>       0.00000000       0.00000000      25.45109991 </v>
    </varray>
    <i name="volume">  16861.21312721 </i>
    <varray name="rec_basis" >
     <v>       0.03984490       0.00000000       0.00000000 </v>
     <v>       0.00000000       0.03788305       0.00000000 </v>
     <v>       0.00000000       0.00000000       0.03929103 </v>
    </varray>
   </crystal>
   <varray name="positions" >
    <v>       0.49423523       0.55444744       0.69244594 </v>
    <v>       0.50808173       0.61108295       0.59848386 </v>
    <v>       0.70025639       0.61325701       0.48302827 </v>
    <v>       0.66190771       0.75144047       0.63435879 </v>
    <v>       0.51444050       0.50563678       0.59765497 </v>
    <v>       0.57397178       0.69362626       0.59871197 </v>
    <v>       0.59766763       0.60652471       0.53569970 </v>
    <v>       0.65510862       0.64838116       0.66172509 </v>
    <v>       0.54683304       0.64640515       0.69670086 </v>
    <v>       0.67869151       0.68289168       0.55707523 </v>
    <v>       0.69085122       0.57824896       0.58730333 </v>
    <v>       0.59656611       0.56209132       0.64188806 </v>
   </varray>
  </structure>
  <varray name="forces" >
   <v>       0.03652058       0.01357736      -0.04175667 </v>
   <v>      -0.07436548      -0.03660348      -0.01650018 </v>
   <v>      -0.02935170      -0.01109780      -0.00997869 </v>
   <v>       0.03607636      -0.01158103      -0.04646468 </v>
   <v>       0.06210413       0.05518932      -0.02652569 </v>
   <v>       0.00103183       0.04508096       0.01508987 </v>
   <v>      -0.00458877       0.01549103      -0.02483886 </v>
   <v>      -0.00397226       0.02996120       0.05171231 </v>
   <v>      -0.04021134      -0.03285643       0.04336110 </v>
   <v>       0.00383762       0.01825195      -0.02653594 </v>
   <v>       0.01569708      -0.03628462       0.00369916 </v>
   <v>      -0.00277805      -0.04912847       0.07873827 </v>
  </varray>
  <varray name="stress" >
   <v>      -0.05481805      -0.00841473       0.00839735 </v>
   <v>      -0.00841473      -0.05626405      -0.00613443 </v>
   <v>       0.00839735      -0.00613443      -0.03573471 </v>
  </varray>
  <energy>
   <i name="e_fr_energy">    -23.42392784 </i>
   <i name="e_wo_entrp">    -23.42392784 </i>
   <i name="e_0_energy">     -0.00000000 </i>
  </energy>
  <time name="totalsc">   22.80   23.93</time>
 </calculation>
 <calculation>
  <scstep>
   <time name="dav">    2.49    2.61</time>
   <time name="total">    3.11    3.23</time>
   <energy>
    <i name="alphaZ">     15.16568811 </i>
    <i name="ewald">  17462.38326268 </i>
    <i name="hartreedc"> -29347.43852311 </i>
    <i name="XCdc">   -141.45126517 </i>
    <i name="pawpsdc">  10447.26399752 </i>
    <i name="pawaedc">  -9907.00618205 </i>
    <i name="eentropy">     -0.00000000 </i>
    <i name="bandstr">  -1001.19391445 </i>
    <i name="atom">  12448.85194051 </i>
    <i name="e_fr_energy">    -23.42499595 </i>
    <i name="e_wo_entrp">    -23.42499595 </i>
    <i name="e_0_energy">    -23.42499595 </i>
   </energy>
  </scstep>
  <scstep>
   <time name="diag">    0.45    0.45</time>
   <time name="diis">    1.58    1.58</time>
   <time name="orth">    0.03    0.03</time>
   <time name="total">    2.69    2.69</time>
   <energy>
    <i name="e_fr_energy">    -23.42851069 </i>
    <i name="e_wo_entrp">    -23.42851069 </i>
    <i name="e_0_energy">    -23.42851069 </i>
   </energy>
  </scstep>
  <scstep>
   <time name="diag">    0.57    0.65</time>
   <time name="diis">    1.58    1.59</time>
   <time name="orth">    0.03    0.03</time>
   <time name="total">    2.82    2.90</time>
   <energy>
    <i name="e_fr_energy">    -23.42848539 </i>
    <i name="e_wo_entrp">    -23.42848539 </i>
    <i name="e_0_energy">    -23.42848539 </i>
   </energy>
  </scstep>
  <scstep>
   <time name="diag">    0.45    0.45</time>
   <time name="diis">    1.58    1.58</time>
   <time name="orth">    0.03    0.03</time>
   <time name="total">    2.69    2.69</time>
   <energy>
    <i name="e_fr_energy">    -23.42834856 </i>
    <i name="e_wo_entrp">    -23.42834856 </i>
    <i name="e_0_energy">    -23.42834856 </i>
   </energy>
  </scstep>
  <scstep>
   <time name="diag">    0.46    0.47</time>
   <time name="diis">    1.58    1.58</time>
   <time name="orth">    0.03    0.03</time>
   <time name="total">    2.82    2.96</time>
   <energy>
    <i name="e_fr_energy">    -23.42836080 </i>
    <i name="e_wo_entrp">    -23.42836080 </i>
    <i name="e_0_energy">    -23.42836080 </i>
   </energy>
  </scstep>
  <scstep>
   <time name="diag">    0.45    0.45</time>
   <time name="diis">    1.02    1.02</time>
   <time name="orth">    0.03    0.03</time>
   <time name="total">    1.93    1.94</time>
   <energy>
    <i name="alphaZ">     15.16568811 </i>
    <i name="ewald">  17462.38326268 </i>
    <i name="hartreedc"> -29347.41628253 </i>
    <i name="XCdc">   -141.45368639 </i>
    <i name="pawpsdc">  10447.27095947 </i>
    <i name="pawaedc">  -9907.01859486 </i>
    <i name="eentropy">     -0.00000000 </i>
    <i name="bandstr">  -1001.21163998 </i>
    <i name="atom">  12448.85194051 </i>
    <i name="e_fr_energy">    -23.42835298 </i>
    <i name="e_wo_entrp">    -23.42835298 </i>
    <i name="e_0_energy">    -23.42835298 </i>
   </energy>
  </scstep>
  <structure>
   <crystal>
    <varray name="basis" >
     <v>      25.09731200       0.00000000       0.00000000 </v>
[...]
   <i name="e_wo_entrp">    -23.50157977 </i>
   <i name="e_0_energy">     -0.00000000 </i>
  </energy>
  <time name="totalsc">    9.29    9.81</time>
  <eigenvalues>
   <array>
    <dimension dim="1">band</dimension>
    <dimension dim="2">kpoint</dimension>
    <dimension dim="3">spin</dimension>
    <field>eigene</field>
    <field>occ</field>
    <set>
     <set comment="spin 1">
      <set comment="kpoint 1">
       <r>   -9.3309    1.0000 </r>
       <r>   -9.2214    1.0000 </r>
       <r>   -9.1763    1.0000 </r>
       <r>   -9.0882    1.0000 </r>
       <r>   -8.9765    1.0000 </r>
       <r>   -8.9601    1.0000 </r>
       <r>   -8.8817    1.0000 </r>
       <r>   -8.8074    1.0000 </r>
       <r>   -8.7593    1.0000 </r>
       <r>   -8.7084    1.0000 </r>
       <r>   -8.6025    1.0000 </r>
       <r>   -8.5785    1.0000 </r>
       <r>   -8.5456    1.0000 </r>
       <r>   -8.5279    1.0000 </r>
       <r>   -8.5063    1.0000 </r>
       <r>   -8.4191    1.0000 </r>
       <r>   -8.3400    1.0000 </r>
       <r>   -8.2768    1.0000 </r>
       <r>   -8.2573    1.0000 </r>
       <r>   -8.1653    1.0000 </r>
       <r>   -8.1375    1.0000 </r>
       <r>   -8.0823    1.0000 </r>
       <r>   -7.9652    1.0000 </r>
       <r>   -7.9485    1.0000 </r>
       <r>   -7.9218    1.0000 </r>
       <r>   -7.8428    1.0000 </r>
       <r>   -7.8072    1.0000 </r>
       <r>   -7.7344    1.0000 </r>
       <r>   -7.7072    1.0000 </r>
       <r>   -7.6789    1.0000 </r>
       <r>   -7.6000    1.0000 </r>
       <r>   -7.5670    1.0000 </r>
       <r>   -7.5556    1.0000 </r>
       <r>   -7.5124    1.0000 </r>
       <r>   -7.4311    1.0000 </r>
       <r>   -7.4239    1.0000 </r>
       <r>   -7.4012    1.0000 </r>
       <r>   -7.3626    1.0000 </r>
       <r>   -7.3410    1.0000 </r>
       <r>   -7.3234    1.0000 </r>
       <r>   -7.2930    1.0000 </r>
       <r>   -7.2794    1.0000 </r>
       <r>   -7.2652    1.0000 </r>
       <r>   -7.2389    1.0000 </r>
       <r>   -7.1986    1.0000 </r>
       <r>   -7.1558    1.0000 </r>
       <r>   -7.1194    1.0000 </r>
       <r>   -7.0959    1.0000 </r>
       <r>   -7.0612    1.0000 </r>
       <r>   -7.0486    1.0000 </r>
       <r>   -7.0059    1.0000 </r>
       <r>   -7.0018    1.0000 </r>
       <r>   -6.9390    1.0000 </r>
       <r>   -6.9213    1.0000 </r>
       <r>   -6.8793    1.0000 </r>
       <r>   -6.8584    1.0000 </r>
       <r>   -6.8522    1.0000 </r>
       <r>   -6.7689    1.0000 </r>
       <r>   -6.7237    1.0000 </r>
       <r>   -6.6867    1.0000 </r>
       <r>   -6.6371    1.0000 </r>
       <r>   -6.3646    1.0000 </r>
       <r>   -5.8101    1.0000 </r>
       <r>   -4.8580    1.0000 </r>
       <r>   -4.5813    1.0000 </r>
       <r>   -4.4343    1.0000 </r>
       <r>   -3.2999    0.0000 </r>
       <r>   -3.1130    0.0000 </r>
       <r>   -2.8187    0.0000 </r>
       <r>   -2.4697    0.0000 </r>
       <r>   -2.3404    0.0000 </r>
       <r>   -2.1663    0.0000 </r>
       <r>   -1.9624    0.0000 </r>
       <r>   -1.2865    0.0000 </r>
       <r>   -1.1897    0.0000 </r>
       <r>   -1.1018    0.0000 </r>
       <r>   -0.8339    0.0000 </r>
       <r>   -0.6754    0.0000 </r>
       <r>   -0.4907    0.0000 </r>
       <r>   -0.3474    0.0000 </r>
      </set>
     </set>
    </set>
   </array>
  </eigenvalues>
  <separator name="orbital magnetization" >
   <v name="MAGDIPOLOUT">      0.00000000      0.00000000      0.00000000</v>
  </separator>
  <dos>
   <i name="efermi">     -4.17333292 </i>
   <total>
    <array>
     <dimension dim="1">gridpoints</dimension>
     <dimension dim="2">spin</dimension>
     <field>energy</field>
     <field>total</field>
     <field>integrated</field>
     <set>
      <set comment="spin 1">
       <r>    -9.8309     0.0000     0.0000 </r>
       <r>    -9.7976     0.0000     0.0000 </r>
       <r>    -9.7644     0.0000     0.0000 </r>
       <r>    -9.7311     0.0000     0.0000 </r>
       <r>    -9.6978     0.0000     0.0000 </r>
       <r>    -9.6645     0.0000     0.0000 </r>
       <r>    -9.6313     0.0000     0.0000 </r>
       <r>    -9.5980     0.0000     0.0000 </r>
       <r>    -9.5647     0.0000     0.0000 </r>
       <r>    -9.5314     0.0000     0.0000 </r>
       <r>    -9.4981     0.0001     0.0000 </r>
       <r>    -9.4649     0.0045     0.0002 </r>
       <r>    -9.4316     0.1280     0.0044 </r>
       <r>    -9.3983     1.5705     0.0567 </r>
       <r>    -9.3650     8.3579     0.3348 </r>
       <r>    -9.3317    19.4841     0.9832 </r>
       <r>    -9.2985    20.6703     1.6711 </r>
       <r>    -9.2652    14.8111     2.1640 </r>
       <r>    -9.2319    21.3910     2.8758 </r>
       <r>    -9.1986    34.0313     4.0083 </r>
       <r>    -9.1654    34.5585     5.1584 </r>
       <r>    -9.1321    25.0325     5.9914 </r>
       <r>    -9.0988    22.3527     6.7353 </r>
       <r>    -9.0655    22.7121     7.4911 </r>
       <r>    -9.0322    16.5712     8.0426 </r>
       <r>    -8.9990    22.3497     8.7863 </r>
       <r>    -8.9657    40.4290    10.1318 </r>
       <r>    -8.9324    41.2855    11.5057 </r>
       <r>    -8.8991    30.4081    12.5176 </r>
       <r>    -8.8658    27.6191    13.4367 </r>
       <r>    -8.8326    27.4257    14.3494 </r>
       <r>    -8.7993    32.4333    15.4287 </r>
       <r>    -8.7660    38.4562    16.7085 </r>
       <r>    -8.7327    38.9079    18.0033 </r>
       <r>    -8.6995    33.3477    19.1130 </r>
       <r>    -8.6662    21.9795    19.8445 </r>
       <r>    -8.6329    19.6301    20.4977 </r>
       <r>    -8.5996    38.8639    21.7911 </r>
       <r>    -8.5663    62.9965    23.8875 </r>
       <r>    -8.5331    74.4338    26.3645 </r>
       <r>    -8.4998    64.7367    28.5189 </r>
       <r>    -8.4665    38.8279    29.8110 </r>
       <r>    -8.4332    25.2093    30.6499 </r>
       <r>    -8.3999    25.5193    31.4992 </r>
       <r>    -8.3667    24.8242    32.3253 </r>
       <r>    -8.3334    28.5012    33.2737 </r>
       <r>    -8.3001    36.1243    34.4759 </r>
       <r>    -8.2668    45.0578    35.9753 </r>
       <r>    -8.2336    40.8412    37.3345 </r>
       <r>    -8.2003    27.8788    38.2622 </r>
       <r>    -8.1670    33.3019    39.3705 </r>
       <r>    -8.1337    44.7354    40.8592 </r>
       <r>    -8.1004    41.7069    42.2471 </r>
       <r>    -8.0672    31.1640    43.2842 </r>
       <r>    -8.0339    18.3476    43.8948 </r>
       <r>    -8.0006    17.0324    44.4616 </r>
       <r>    -7.9673    38.5106    45.7432 </r>
       <r>    -7.9341    58.1570    47.6786 </r>
       <r>    -7.9008    49.0969    49.3124 </r>
       <r>    -7.8675    33.3205    50.4213 </r>
       <r>    -7.8342    36.2318    51.6270 </r>
       <r>    -7.8009    40.4124    52.9719 </r>
       <r>    -7.7677    35.3867    54.1495 </r>
       <r>    -7.7344    41.1170    55.5178 </r>
       <r>    -7.7011    54.2033    57.3216 </r>
       <r>    -7.6678    49.8571    58.9808 </r>
       <r>    -7.6345    35.3240    60.1563 </r>
       <r>    -7.6013    39.8186    61.4814 </r>
       <r>    -7.5680    59.2290    63.4524 </r>
       <r>    -7.5347    63.1168    65.5529 </r>
       <r>    -7.5014    47.3811    67.1296 </r>
       <r>    -7.4682    36.3151    68.3381 </r>
       <r>    -7.4349    50.9703    70.0343 </r>
       <r>    -7.4016    72.4061    72.4439 </r>
       <r>    -7.3683    77.3840    75.0191 </r>
       <r>    -7.3350    82.4758    77.7638 </r>
       <r>    -7.3018    91.5897    80.8117 </r>
       <r>    -7.2685    94.7192    83.9638 </r>
       <r>    -7.2352    81.7353    86.6839 </r>
       <r>    -7.2019    61.5014    88.7305 </r>
       <r>    -7.1686    52.2863    90.4705 </r>
       <r>    -7.1354    55.7653    92.3263 </r>
       <r>    -7.1021    65.0293    94.4904 </r>
       <r>    -7.0688    72.9856    96.9192 </r>
       <r>    -7.0355    76.4036    99.4618 </r>
       <r>    -7.0023    72.4143   101.8716 </r>
       <r>    -6.9690    61.0685   103.9039 </r>
       <r>    -6.9357    57.1536   105.8059 </r>
       <r>    -6.9024    65.3300   107.9800 </r>
       <r>    -6.8691    73.8014   110.4360 </r>
       <r>    -6.8359    66.6573   112.6542 </r>
       <r>    -6.8026    42.3183   114.0625 </r>
       <r>    -6.7693    33.4588   115.1759 </r>
       <r>    -6.7360    41.0432   116.5418 </r>
       <r>    -6.7028    46.7643   118.0980 </r>
       <r>    -6.6695    45.2276   119.6031 </r>
       <r>    -6.6362    37.5618   120.8531 </r>
       <r>    -6.6029    23.8731   121.6476 </r>
       <r>    -6.5696     8.8645   121.9426 </r>
       <r>    -6.5364     1.5925   121.9956 </r>
       <r>    -6.5031     0.1307   121.9999 </r>
       <r>    -6.4698     0.0897   122.0029 </r>
       <r>    -6.4365     1.1723   122.0419 </r>
       <r>    -6.4032     6.9868   122.2744 </r>
       <r>    -6.3700    18.1810   122.8795 </r>
       <r>    -6.3367    20.7574   123.5703 </r>
       <r>    -6.3034    10.4053   123.9165 </r>
       <r>    -6.2701     2.2818   123.9925 </r>
       <r>    -6.2369     0.2174   123.9997 </r>
       <r>    -6.2036     0.0089   124.0000 </r>
       <r>    -6.1703     0.0002   124.0000 </r>
       <r>    -6.1370     0.0000   124.0000 </r>
       <r>    -6.1037     0.0000   124.0000 </r>
       <r>    -6.0705     0.0000   124.0000 </r>
       <r>    -6.0372     0.0000   124.0000 </r>
       <r>    -6.0039     0.0000   124.0000 </r>
       <r>    -5.9706     0.0002   124.0000 </r>
       <r>    -5.9373     0.0095   124.0003 </r>
       <r>    -5.9041     0.2275   124.0079 </r>
       <r>    -5.8708     2.3549   124.0863 </r>
       <r>    -5.8375    10.5937   124.4388 </r>
       <r>    -5.8042    20.8500   125.1327 </r>
       <r>    -5.7710    18.0179   125.7323 </r>
       <r>    -5.7377     6.8311   125.9596 </r>
       <r>    -5.7044     1.1307   125.9972 </r>
       <r>    -5.6711     0.0811   125.9999 </r>
       <r>    -5.6378     0.0025   126.0000 </r>
       <r>    -5.6046     0.0000   126.0000 </r>
       <r>    -5.5713     0.0000   126.0000 </r>
       <r>    -5.5380     0.0000   126.0000 </r>
       <r>    -5.5047     0.0000   126.0000 </r>
       <r>    -5.4715     0.0000   126.0000 </r>
       <r>    -5.4382     0.0000   126.0000 </r>
       <r>    -5.4049     0.0000   126.0000 </r>
       <r>    -5.3716     0.0000   126.0000 </r>
       <r>    -5.3383     0.0000   126.0000 </r>
       <r>    -5.3051     0.0000   126.0000 </r>
       <r>    -5.2718     0.0000   126.0000 </r>
       <r>    -5.2385     0.0000   126.0000 </r>
       <r>    -5.2052     0.0000   126.0000 </r>
       <r>    -5.1719     0.0000   126.0000 </r>
       <r>    -5.1387     0.0000   126.0000 </r>
       <r>    -5.1054     0.0000   126.0000 </r>
       <r>    -5.0721     0.0000   126.0000 </r>
       <r>    -5.0388     0.0000   126.0000 </r>
       <r>    -5.0056     0.0009   126.0000 </r>
       <r>    -4.9723     0.0359   126.0012 </r>
       <r>    -4.9390     0.6219   126.0219 </r>
       <r>    -4.9057     4.6560   126.1769 </r>
       <r>    -4.8724    15.1905   126.6824 </r>
       <r>    -4.8392    21.7234   127.4053 </r>
       <r>    -4.8059    13.6433   127.8593 </r>
       <r>    -4.7726     3.7537   127.9842 </r>
       <r>    -4.7393     0.4499   127.9992 </r>
       <r>    -4.7060     0.0356   128.0004 </r>
       <r>    -4.6728     0.2782   128.0097 </r>
       <r>    -4.6395     2.7038   128.0996 </r>
       <r>    -4.6062    11.4472   128.4806 </r>
       <r>    -4.5729    21.2145   129.1866 </r>
       <r>    -4.5397    17.3443   129.7638 </r>
       <r>    -4.5064     7.3239   130.0075 </r>
       <r>    -4.4731     7.9147   130.2709 </r>
       <r>    -4.4398    18.2132   130.8770 </r>
       <r>    -4.4065    20.7782   131.5684 </r>
       <r>    -4.3733    10.4431   131.9160 </r>
       <r>    -4.3400     2.2964   131.9924 </r>
       <r>    -4.3067     0.2194   131.9997 </r>
       <r>    -4.2734     0.0090   132.0000 </r>
       <r>    -4.2401     0.0002   132.0000 </r>
       <r>    -4.2069     0.0000   132.0000 </r>
       <r>    -4.1736     0.0000   132.0000 </r>
       <r>    -4.1403     0.0000   132.0000 </r>
       <r>    -4.1070     0.0000   132.0000 </r>
       <r>    -4.0738     0.0000   132.0000 </r>
       <r>    -4.0405     0.0000   132.0000 </r>
       <r>    -4.0072     0.0000   132.0000 </r>
       <r>    -3.9739     0.0000   132.0000 </r>
       <r>    -3.9406     0.0000   132.0000 </r>
       <r>    -3.9074     0.0000   132.0000 </r>
       <r>    -3.8741     0.0000   132.0000 </r>
       <r>    -3.8408     0.0000   132.0000 </r>
       <r>    -3.8075     0.0000   132.0000 </r>
       <r>    -3.7743     0.0000   132.0000 </r>
       <r>    -3.7410     0.0000   132.0000 </r>
       <r>    -3.7077     0.0000   132.0000 </r>
       <r>    -3.6744     0.0000   132.0000 </r>
       <r>    -3.6411     0.0000   132.0000 </r>
       <r>    -3.6079     0.0000   132.0000 </r>
       <r>    -3.5746     0.0000   132.0000 </r>
       <r>    -3.5413     0.0000   132.0000 </r>
       <r>    -3.5080     0.0000   132.0000 </r>
       <r>    -3.4747     0.0000   132.0000 </r>
       <r>    -3.4415     0.0018   132.0001 </r>
       <r>    -3.4082     0.0639   132.0022 </r>
       <r>    -3.3749     0.9506   132.0338 </r>
       <r>    -3.3416     6.1245   132.2376 </r>
       <r>    -3.3084    17.2171   132.8106 </r>
       <r>    -3.2751    21.2294   133.5171 </r>
       <r>    -3.2418    11.5025   133.8999 </r>
       <r>    -3.2085     2.9231   133.9971 </r>
       <r>    -3.1752     2.4265   134.0779 </r>
       <r>    -3.1420    10.0575   134.4126 </r>
       <r>    -3.1087    20.5673   135.0970 </r>
       <r>    -3.0754    18.4884   135.7123 </r>
       <r>    -3.0421     7.2925   135.9550 </r>
       <r>    -3.0088     1.2561   135.9968 </r>
       <r>    -2.9756     0.0941   135.9999 </r>
       <r>    -2.9423     0.0170   136.0005 </r>
       <r>    -2.9090     0.3056   136.0106 </r>
       <r>    -2.8757     2.8880   136.1067 </r>
       <r>    -2.8425    11.8698   136.5018 </r>
       <r>    -2.8092    21.3568   137.2125 </r>
       <r>    -2.7759    16.8741   137.7740 </r>
       <r>    -2.7426     5.8472   137.9686 </r>
       <r>    -2.7093     0.8839   137.9980 </r>
       <r>    -2.6761     0.0578   137.9999 </r>
       <r>    -2.6428     0.0017   138.0000 </r>
       <r>    -2.6095     0.0023   138.0001 </r>
       <r>    -2.5762     0.0751   138.0026 </r>
       <r>    -2.5430     1.0694   138.0382 </r>
       <r>    -2.5097     6.5970   138.2577 </r>
       <r>    -2.4764    17.7672   138.8490 </r>
       <r>    -2.4431    21.0905   139.5508 </r>
       <r>    -2.4098    12.2643   139.9590 </r>
       <r>    -2.3766    10.1982   140.2983 </r>
       <r>    -2.3433    19.1411   140.9353 </r>
       <r>    -2.3100    20.2904   141.6106 </r>
       <r>    -2.2767     9.6057   141.9302 </r>
       <r>    -2.2434     2.7913   142.0231 </r>
       <r>    -2.2102     5.7632   142.2149 </r>
       <r>    -2.1769    16.5436   142.7654 </r>
       <r>    -2.1436    21.4638   143.4797 </r>
       <r>    -2.1103    12.2347   143.8869 </r>
       <r>    -2.0771     3.0876   143.9896 </r>
       <r>    -2.0438     0.9369   144.0208 </r>
       <r>    -2.0105     4.5903   144.1736 </r>
       <r>    -1.9772    15.0621   144.6748 </r>
       <r>    -1.9439    21.7351   145.3981 </r>
       <r>    -1.9107    13.7748   145.8565 </r>
       <r>    -1.8774     3.8245   145.9838 </r>
       <r>    -1.8441     0.4624   145.9992 </r>
       <r>    -1.8108     0.0241   146.0000 </r>
       <r>    -1.7775     0.0005   146.0000 </r>
       <r>    -1.7443     0.0000   146.0000 </r>
       <r>    -1.7110     0.0000   146.0000 </r>
       <r>    -1.6777     0.0000   146.0000 </r>
       <r>    -1.6444     0.0000   146.0000 </r>
       <r>    -1.6112     0.0000   146.0000 </r>
       <r>    -1.5779     0.0000   146.0000 </r>
       <r>    -1.5446     0.0000   146.0000 </r>
       <r>    -1.5113     0.0000   146.0000 </r>
       <r>    -1.4780     0.0000   146.0000 </r>
       <r>    -1.4448     0.0002   146.0000 </r>
       <r>    -1.4115     0.0121   146.0004 </r>
       <r>    -1.3782     0.2737   146.0095 </r>
       <r>    -1.3449     2.6773   146.0986 </r>
       <r>    -1.3117    11.4007   146.4780 </r>
       <r>    -1.2784    21.5352   147.1947 </r>
       <r>    -1.2451    20.4674   147.8758 </r>
       <r>    -1.2118    18.7020   148.4982 </r>
       <r>    -1.1785    23.3353   149.2747 </r>
       <r>    -1.1453    22.1011   150.0102 </r>
       <r>    -1.1120    22.1195   150.7463 </r>
       <r>    -1.0787    22.2133   151.4855 </r>
       <r>    -1.0454    12.1365   151.8894 </r>
       <r>    -1.0121     2.9869   151.9888 </r>
       <r>    -0.9789     0.3220   151.9995 </r>
       <r>    -0.9456     0.0613   152.0016 </r>
       <r>    -0.9123     0.7525   152.0266 </r>
       <r>    -0.8790     5.2708   152.2020 </r>
       <r>    -0.8458    16.1048   152.7380 </r>
       <r>    -0.8125    21.5784   153.4561 </r>
       <r>    -0.7792    12.7899   153.8817 </r>
       <r>    -0.7459     4.5527   154.0332 </r>
       <r>    -0.7126     7.7528   154.2912 </r>
       <r>    -0.6794    18.5969   154.9101 </r>
       <r>    -0.6461    20.5074   155.5925 </r>
       <r>    -0.6128     9.9535   155.9238 </r>
       <r>    -0.5795     2.4510   156.0053 </r>
       <r>    -0.5462     3.3314   156.1162 </r>
       <r>    -0.5130    12.4229   156.5296 </r>
       <r>    -0.4797    21.5163   157.2456 </r>
       <r>    -0.4464    16.5150   157.7952 </r>
       <r>    -0.4131     7.2005   158.0348 </r>
       <r>    -0.3799     9.6786   158.3569 </r>
       <r>    -0.3466    19.8812   159.0185 </r>
       <r>    -0.3133    19.4326   159.6652 </r>
       <r>    -0.2800     8.3565   159.9433 </r>
       <r>    -0.2467     1.5704   159.9956 </r>
       <r>    -0.2135     0.1280   159.9998 </r>
       <r>    -0.1802     0.0045   160.0000 </r>
       <r>    -0.1469     0.0001   160.0000 </r>
       <r>    -0.1136     0.0000   160.0000 </r>
       <r>    -0.0803     0.0000   160.0000 </r>
       <r>    -0.0471     0.0000   160.0000 </r>
       <r>    -0.0138     0.0000   160.0000 </r>
       <r>     0.0195     0.0000   160.0000 </r>
       <r>     0.0528     0.0000   160.0000 </r>
       <r>     0.0860     0.0000   160.0000 </r>
       <r>     0.1193     0.0000   160.0000 </r>
       <r>     0.1526     0.0000   160.0000 </r>
      </set>
     </set>
    </array>
   </total>
  </dos>
 </calculation>
 <structure name="finalpos" >
  <crystal>
   <varray name="basis" >
    <v>      25.09731200       0.00000000       0.00000000 </v>
    <v>       0.00000000      26.39702918       0.00000000 </v>
    <v>       0.00000000       0.00000000      25.45109991 </v>
   </varray>
   <i name="volume">  16861.21312721 </i>
   <varray name="rec_basis" >
    <v>       0.03984490       0.00000000       0.00000000 </v>
    <v>       0.00000000       0.03788305       0.00000000 </v>
    <v>       0.00000000       0.00000000       0.03929103 </v>
   </varray>
  </crystal>
  <varray name="positions" >
   <v>       0.49467810       0.54610197       0.68558906 </v>
   <v>       0.50499054       0.61640296       0.60337901 </v>
   <v>       0.69289502       0.60600498       0.48355353 </v>
   <v>       0.66874758       0.75306146       0.62678394 </v>
   <v>       0.52961664       0.51653725       0.58236781 </v>
   <v>       0.57412063       0.69609561       0.60315405 </v>
   <v>       0.59310987       0.60254344       0.54031659 </v>
   <v>       0.65479187       0.65293334       0.66356597 </v>
   <v>       0.54380274       0.64215993       0.70168399 </v>
   <v>       0.67455973       0.67971035       0.55377287 </v>
   <v>       0.68880750       0.57826108       0.59058807 </v>
   <v>       0.59849124       0.56422153       0.65032117 </v>
  </varray>
 </structure>
</modeling>
