BLACK                                   
           1
    25.097312    0.000000    0.000000
     0.000000   26.397029    0.000000
     0.000000    0.000000   25.451100
   Ag
  12
Direct configuration=     1
   0.49734997  0.55765583  0.69188359
   0.50761728  0.61063555  0.59573497
   0.70045188  0.61296600  0.48360206
   0.65737138  0.74923970  0.63488736
   0.51157334  0.50690071  0.59750783
   0.57228509  0.69157810  0.59902136
   0.59919182  0.60706074  0.53602151
   0.65619223  0.64707476  0.66256706
   0.54976231  0.64828746  0.69778140
   0.67763630  0.68369953  0.55704485
   0.69167401  0.57758777  0.58806905
   0.59750585  0.56134774  0.64095504
Direct configuration=     2
   0.49719446  0.55751728  0.69193148
   0.50751548  0.61054339  0.59598923
   0.70044773  0.61301891  0.48360883
   0.65763377  0.74960090  0.63501249
   0.51175122  0.50677252  0.59751816
   0.57240688  0.69188416  0.59894583
   0.59913542  0.60697806  0.53586064
   0.65621061  0.64712851  0.66256117
   0.54952812  0.64811746  0.69776810
   0.67777170  0.68350293  0.55688329
   0.69179877  0.57763028  0.58792367
   0.59721729  0.56133950  0.64107318
Direct configuration=     3
   0.49675473  0.55712550  0.69206688
   0.50722761  0.61028280  0.59670821
   0.70043599  0.61316851  0.48362798
   0.65837573  0.75062227  0.63536633
   0.51225421  0.50641003  0.59754736
   0.57275127  0.69274961  0.59873225
   0.59897593  0.60674425  0.53540576
   0.65626259  0.64728052  0.66254454
   0.54886590  0.64763675  0.69773048
   0.67815459  0.68294701  0.55642646
   0.69215156  0.57775046  0.58751258
   0.59640134  0.56131618  0.64140725
Direct configuration=     4
   0.49632177  0.55673890  0.69223962
   0.50730120  0.61039868  0.59704962
   0.70050616  0.61313319  0.48338001
   0.65891024  0.75086312  0.63527790
   0.51256423  0.50612052  0.59751612
   0.57298697  0.69301989  0.59866684
   0.59872331  0.60665050  0.53535172
   0.65615726  0.64741008  0.66238381
   0.54852924  0.64742477  0.69761154
   0.67821838  0.68300911  0.55663096
   0.69208936  0.57781629  0.58748352
   0.59630335  0.56144884  0.64148440
Direct configuration=     5
   0.49558546  0.55608143  0.69253340
   0.50742635  0.61059577  0.59763023
   0.70062550  0.61307312  0.48295831
   0.65981924  0.75127272  0.63512751
   0.51309146  0.50562815  0.59746299
   0.57338782  0.69347955  0.59855561
   0.59829368  0.60649106  0.53525983
   0.65597812  0.64763040  0.66211047
   0.54795668  0.64706425  0.69740925
   0.67832687  0.68311473  0.55697875
   0.69198356  0.57792826  0.58743410
   0.59613671  0.56167446  0.64161561
Direct configuration=     6
   0.49411284  0.55476648  0.69312096
   0.50767664  0.61098993  0.59879146
   0.70086417  0.61295299  0.48211491
   0.66163724  0.75209192  0.63482673
   0.51414593  0.50464342  0.59735674
   0.57418952  0.69439885  0.59833314
   0.59743444  0.60617219  0.53507605
   0.65561986  0.64807106  0.66156378
   0.54681157  0.64634321  0.69700468
   0.67854384  0.68332596  0.55767433
   0.69177198  0.57815219  0.58733525
   0.59580342  0.56212569  0.64187803
Direct configuration=     7
   0.49504512  0.55559894  0.69274899
   0.50751819  0.61074039  0.59805632
   0.70071307  0.61302904  0.48264885
   0.66048631  0.75157330  0.63501714
   0.51347837  0.50526683  0.59742401
   0.57368198  0.69381686  0.59847398
   0.59797841  0.60637406  0.53519240
   0.65584667  0.64779209  0.66190987
   0.54753651  0.64679968  0.69726080
   0.67840648  0.68319223  0.55723398
   0.69190593  0.57801042  0.58739783
   0.59601442  0.56184003  0.64171190
Direct configuration=     8
   0.49471583  0.55513076  0.69262577
   0.50774731  0.61087967  0.59823015
   0.70052739  0.61312173  0.48280312
   0.66106423  0.75151929  0.63474946
   0.51386956  0.50541725  0.59751791
   0.57379981  0.69373937  0.59857074
   0.59785205  0.60643531  0.53539866
   0.65554658  0.64803160  0.66183474
   0.54725049  0.64663927  0.69703314
   0.67852237  0.68307003  0.55716943
   0.69147710  0.57810741  0.58735941
   0.59623873  0.56194220  0.64178352
Direct configuration=     9
   0.49423523  0.55444744  0.69244594
   0.50808173  0.61108295  0.59848386
   0.70025639  0.61325701  0.48302827
   0.66190771  0.75144047  0.63435879
   0.51444050  0.50563678  0.59765497
   0.57397178  0.69362626  0.59871197
   0.59766763  0.60652471  0.53569970
   0.65510862  0.64838116  0.66172509
   0.54683304  0.64640515  0.69670086
   0.67869151  0.68289168  0.55707523
   0.69085122  0.57824896  0.58730333
   0.59656611  0.56209132  0.64188806
Direct configuration=    10
   0.49422981  0.55425386  0.69218265
   0.50785229  0.61099305  0.59850105
   0.70001540  0.61325724  0.48306545
   0.66239445  0.75135858  0.63399467
   0.51494949  0.50596871  0.59758152
   0.57404089  0.69378823  0.59883558
   0.59757692  0.60662824  0.53569540
   0.65492620  0.64864736  0.66192708
   0.54648564  0.64616893  0.69678052
   0.67877294  0.68290777  0.55691540
   0.69069236  0.57813745  0.58729978
   0.59667509  0.56192447  0.64229697
Direct configuration=    11
   0.49422481  0.55407571  0.69194035
   0.50764115  0.61091031  0.59851688
   0.69979362  0.61325746  0.48309966
   0.66284238  0.75128323  0.63365959
   0.51541790  0.50627417  0.59751393
   0.57410449  0.69393728  0.59894934
   0.59749345  0.60672353  0.53569143
   0.65475832  0.64889233  0.66211297
   0.54616594  0.64595155  0.69685383
   0.67884787  0.68292257  0.55676832
   0.69054616  0.57803484  0.58729651
   0.59677537  0.56177092  0.64267328
Direct configuration=    12
   0.49423458  0.55392539  0.69185504
   0.50754684  0.61110545  0.59839059
   0.69952497  0.61308211  0.48294551
   0.66335320  0.75145597  0.63331372
   0.51599523  0.50629798  0.59696448
   0.57400641  0.69397549  0.59911434
   0.59726080  0.60684486  0.53579839
   0.65458404  0.64892419  0.66230712
   0.54586809  0.64574812  0.69706830
   0.67885457  0.68290092  0.55659005
   0.69033323  0.57795464  0.58747173
   0.59704952  0.56181876  0.64325680
Direct configuration=    13
   0.49424134  0.55382136  0.69179599
   0.50748158  0.61124051  0.59830320
   0.69933904  0.61296077  0.48283884
   0.66370672  0.75157552  0.63307436
   0.51639478  0.50631446  0.59658423
   0.57393853  0.69400193  0.59922854
   0.59709978  0.60692884  0.53587241
   0.65446342  0.64894624  0.66244148
   0.54566195  0.64560734  0.69721673
   0.67885921  0.68288594  0.55646667
   0.69018586  0.57789914  0.58759300
   0.59723924  0.56185186  0.64366063
Direct configuration=    14
   0.49425487  0.55361331  0.69167791
   0.50735104  0.61151061  0.59812840
   0.69896719  0.61271807  0.48262549
   0.66441376  0.75181462  0.63259563
   0.51719388  0.50634741  0.59582372
   0.57380277  0.69405481  0.59945693
   0.59677776  0.60709679  0.53602044
   0.65422218  0.64899034  0.66271021
   0.54524968  0.64532577  0.69751359
   0.67886849  0.68285597  0.55621991
   0.68989113  0.57778813  0.58783553
   0.59761869  0.56191808  0.64446831
Direct configuration=    15
   0.49424637  0.55374398  0.69175208
   0.50743303  0.61134096  0.59823819
   0.69920075  0.61287050  0.48275949
   0.66396968  0.75166444  0.63289631
   0.51669198  0.50632671  0.59630139
   0.57388804  0.69402160  0.59931348
   0.59698002  0.60699130  0.53592746
   0.65437370  0.64896264  0.66254142
   0.54550862  0.64550262  0.69732714
   0.67886266  0.68287479  0.55637489
   0.69007624  0.57785785  0.58768320
   0.59738036  0.56187649  0.64396102
Direct configuration=    16
   0.49427863  0.55351929  0.69156048
   0.50746229  0.61138347  0.59827108
   0.69892222  0.61266333  0.48266653
   0.66430091  0.75174649  0.63265573
   0.51721402  0.50650072  0.59585749
   0.57391717  0.69407462  0.59950082
   0.59684717  0.60705111  0.53604705
   0.65430709  0.64909991  0.66261010
   0.54532533  0.64542106  0.69749454
   0.67879149  0.68276092  0.55628854
   0.68991341  0.57789881  0.58775146
   0.59733173  0.56191416  0.64437224
Direct configuration=    17
   0.49431789  0.55324577  0.69132726
   0.50749792  0.61143522  0.59831112
   0.69858317  0.61241115  0.48255338
   0.66470412  0.75184636  0.63236289
   0.51784948  0.50671254  0.59531714
   0.57395264  0.69413916  0.59972886
   0.59668545  0.60712391  0.53619262
   0.65422600  0.64926700  0.66269370
   0.54510222  0.64532177  0.69769830
   0.67870485  0.68262232  0.55618343
   0.68971520  0.57794867  0.58783456
   0.59727252  0.56196002  0.64487282
Direct configuration=    18
   0.49439641  0.55269873  0.69086081
   0.50756917  0.61153872  0.59839120
   0.69790507  0.61190679  0.48232708
   0.66551053  0.75204610  0.63177719
   0.51912040  0.50713617  0.59423645
   0.57402357  0.69426825  0.60018495
   0.59636202  0.60726951  0.53648375
   0.65406382  0.64960118  0.66286090
   0.54465599  0.64512321  0.69810584
   0.67853158  0.68234510  0.55597320
   0.68931878  0.57804839  0.58800075
   0.59715411  0.56205174  0.64587396
Direct configuration=    19
   0.49455346  0.55160464  0.68992792
   0.50771167  0.61174571  0.59855136
   0.69654888  0.61089807  0.48187447
   0.66712335  0.75244559  0.63060579
   0.52166225  0.50798343  0.59207507
   0.57416544  0.69452643  0.60109712
   0.59571515  0.60756072  0.53706602
   0.65373947  0.65026955  0.66319530
   0.54376354  0.64472609  0.69892091
   0.67818503  0.68179066  0.55555274
   0.68852593  0.57824783  0.58833312
   0.59691729  0.56223518  0.64787625
Direct configuration=    20
   0.49447152  0.55124156  0.68967491
   0.50766180  0.61182319  0.59877015
   0.69619762  0.61063517  0.48185074
   0.66744065  0.75247601  0.63032735
   0.52232496  0.50826291  0.59154522
   0.57422742  0.69465907  0.60134956
   0.59564691  0.60750751  0.53712478
   0.65370537  0.65046480  0.66324071
   0.54359289  0.64466747  0.69906846
   0.67806364  0.68164456  0.55546507
   0.68828982  0.57828671  0.58844245
   0.59698885  0.56236494  0.64821667
Direct configuration=    21
   0.49422569  0.55015230  0.68891589
   0.50751219  0.61205562  0.59942651
   0.69514385  0.60984647  0.48177952
   0.66839256  0.75256728  0.62949204
   0.52431307  0.50910133  0.58995569
   0.57441339  0.69505701  0.60210689
   0.59544220  0.60734788  0.53730106
   0.65360310  0.65105057  0.66337694
   0.54308093  0.64449162  0.69951111
   0.67769946  0.68120624  0.55520207
   0.68758150  0.57840335  0.58877044
   0.59720353  0.56275423  0.64923791
Direct configuration=    22
   0.49373404  0.54797377  0.68739785
   0.50721297  0.61252048  0.60073925
   0.69303629  0.60826907  0.48163709
   0.67029637  0.75274982  0.62782141
   0.52828929  0.51077819  0.58677661
   0.57478531  0.69585289  0.60362156
   0.59503276  0.60702862  0.53765362
   0.65339854  0.65222210  0.66364939
   0.54205703  0.64413992  0.70039639
   0.67697110  0.68032961  0.55467606
   0.68616485  0.57863662  0.58942642
   0.59763290  0.56353281  0.65128041
Direct configuration=    23
   0.49398081  0.54906721  0.68815978
   0.50736315  0.61228716  0.60008037
   0.69409411  0.60906079  0.48170858
   0.66934082  0.75265820  0.62865993
   0.52629356  0.50993655  0.58837224
   0.57459864  0.69545342  0.60286133
   0.59523826  0.60718886  0.53747666
   0.65350121  0.65163409  0.66351264
   0.54257094  0.64431645  0.69995205
   0.67733668  0.68076960  0.55494007
   0.68687589  0.57851954  0.58909718
   0.59741740  0.56314203  0.65025525
Direct configuration=    24
   0.49379034  0.54858410  0.68784265
   0.50736675  0.61262497  0.60053414
   0.69377751  0.60874588  0.48182220
   0.66953662  0.75262644  0.62841936
   0.52714999  0.51050131  0.58781489
   0.57445541  0.69560082  0.60296897
   0.59481361  0.60686358  0.53751342
   0.65370634  0.65186951  0.66364507
   0.54242238  0.64414613  0.69998556
   0.67719158  0.68071349  0.55482432
   0.68683016  0.57836465  0.58931502
   0.59757077  0.56339299  0.65039047
Direct configuration=    25
   0.49357220  0.54803081  0.68747944
   0.50737088  0.61301186  0.60105384
   0.69341491  0.60838522  0.48195232
   0.66976087  0.75259007  0.62814384
   0.52813085  0.51114813  0.58717657
   0.57429138  0.69576964  0.60309226
   0.59432725  0.60649105  0.53755552
   0.65394127  0.65213914  0.66379675
   0.54225224  0.64395107  0.70002394
   0.67702540  0.68064923  0.55469175
   0.68677779  0.57818727  0.58956452
   0.59774642  0.56368041  0.65054533
Direct configuration=    26
   0.49313592  0.54692422  0.68675303
   0.50737913  0.61378565  0.60209324
   0.69268971  0.60766389  0.48221257
   0.67020936  0.75251733  0.62759279
   0.53009256  0.51244176  0.58589992
   0.57396331  0.69610726  0.60333883
   0.59335455  0.60574598  0.53763972
   0.65441114  0.65267840  0.66410009
   0.54191196  0.64356094  0.70010069
   0.67669304  0.68052071  0.55442661
   0.68667305  0.57783249  0.59006352
   0.59809773  0.56425526  0.65085507
Direct configuration=    27
   0.49312233  0.54637991  0.68611648
   0.50692182  0.61423340  0.60262797
   0.69226025  0.60722294  0.48270308
   0.67020639  0.75264419  0.62744270
   0.53130318  0.51364445  0.58499716
   0.57413483  0.69626461  0.60330236
   0.59290436  0.60501241  0.53787778
   0.65477094  0.65294637  0.66413869
   0.54185098  0.64325611  0.70041370
   0.67624098  0.68003912  0.55420607
   0.68677935  0.57776583  0.59003598
   0.59811606  0.56462455  0.65121410
Direct configuration=    28
   0.49311418  0.54605377  0.68573508
   0.50664781  0.61450169  0.60294837
   0.69200293  0.60695874  0.48299698
   0.67020460  0.75272020  0.62735276
   0.53202855  0.51436507  0.58445625
   0.57423761  0.69635889  0.60328051
   0.59263461  0.60457288  0.53802041
   0.65498653  0.65310693  0.66416182
   0.54181444  0.64307345  0.70060125
   0.67597011  0.67975057  0.55407393
   0.68684304  0.57772589  0.59001949
   0.59812704  0.56484581  0.65142922
Direct configuration=    29
   0.49311102  0.54592715  0.68558700
   0.50654143  0.61460585  0.60307276
   0.69190302  0.60685616  0.48311109
   0.67020391  0.75274971  0.62731785
   0.53231017  0.51464485  0.58424625
   0.57427751  0.69639549  0.60327202
   0.59252988  0.60440223  0.53807579
   0.65507023  0.65316927  0.66417080
   0.54180026  0.64300254  0.70067406
   0.67586495  0.67963854  0.55402263
   0.68686777  0.57771038  0.59001308
   0.59813130  0.56493172  0.65151274
Direct configuration=    30
   0.49338581  0.54566156  0.68515956
   0.50590543  0.61515105  0.60305174
   0.69186853  0.60631315  0.48312509
   0.67000559  0.75277183  0.62714049
   0.53287205  0.51548774  0.58331995
   0.57460541  0.69618721  0.60320215
   0.59234752  0.60371691  0.53860838
   0.65516740  0.65319184  0.66393418
   0.54196494  0.64290191  0.70125838
   0.67522343  0.67963198  0.55430136
   0.68692559  0.57773537  0.58998326
   0.59833976  0.56528335  0.65199155
Direct configuration=    31
   0.49348322  0.54556741  0.68500804
   0.50567998  0.61534432  0.60304428
   0.69185630  0.60612066  0.48313006
   0.66993528  0.75277966  0.62707761
   0.53307122  0.51578653  0.58299159
   0.57472165  0.69611337  0.60317738
   0.59228287  0.60347398  0.53879717
   0.65520185  0.65319984  0.66385030
   0.54202332  0.64286624  0.70146551
   0.67499602  0.67962966  0.55440017
   0.68694609  0.57774423  0.58997269
   0.59841365  0.56540799  0.65216128
Direct configuration=    32
   0.49388323  0.54563755  0.68479111
   0.50539536  0.61577871  0.60304042
   0.69197534  0.60604124  0.48318273
   0.66972722  0.75304141  0.62706375
   0.53302660  0.51614598  0.58254251
   0.57450911  0.69575690  0.60324153
   0.59245512  0.60319077  0.53923617
   0.65526035  0.65314294  0.66381640
   0.54216967  0.64282267  0.70165662
   0.67479469  0.67936351  0.55417327
   0.68701849  0.57771386  0.58999542
   0.59839627  0.56539836  0.65233614
Direct configuration=    33
   0.49393849  0.54564724  0.68476114
   0.50535604  0.61583872  0.60303989
   0.69199179  0.60603027  0.48319001
   0.66969848  0.75307757  0.62706184
   0.53302044  0.51619563  0.58248048
   0.57447975  0.69570765  0.60325039
   0.59247892  0.60315165  0.53929681
   0.65526843  0.65313508  0.66381171
   0.54218989  0.64281665  0.70168302
   0.67476688  0.67932675  0.55414192
   0.68702849  0.57770967  0.58999856
   0.59839387  0.56539703  0.65236029
Direct configuration=    34
   0.49420617  0.54574209  0.68464818
   0.50509031  0.61596060  0.60305423
   0.69220309  0.60600936  0.48312231
   0.66944568  0.75302908  0.62690139
   0.53277982  0.51639422  0.58231700
   0.57435168  0.69565507  0.60336408
   0.59261855  0.60304786  0.53956716
   0.65533454  0.65318533  0.66381345
   0.54231473  0.64278547  0.70173120
   0.67470735  0.67947918  0.55413007
   0.68716400  0.57756974  0.59015541
   0.59839553  0.56517589  0.65227160
Direct configuration=    35
   0.49436724  0.54579916  0.68458021
   0.50493041  0.61603394  0.60306287
   0.69233024  0.60599678  0.48308157
   0.66929356  0.75299990  0.62680484
   0.53263502  0.51651373  0.58221863
   0.57427461  0.69562343  0.60343249
   0.59270257  0.60298540  0.53972983
   0.65537433  0.65321558  0.66381450
   0.54238986  0.64276671  0.70176018
   0.67467153  0.67957090  0.55412294
   0.68724555  0.57748554  0.59024979
   0.59839653  0.56504282  0.65221822
Direct configuration=    36
   0.49449776  0.54581698  0.68459548
   0.50472921  0.61613993  0.60308247
   0.69252814  0.60607287  0.48318832
   0.66904263  0.75303326  0.62668969
   0.53224851  0.51664473  0.58211438
   0.57420381  0.69564132  0.60356241
   0.59282851  0.60298378  0.53993630
   0.65532916  0.65313590  0.66379484
   0.54256969  0.64270274  0.70170800
   0.67467729  0.67951755  0.55396037
   0.68742977  0.57744213  0.59039928
   0.59852699  0.56490270  0.65204454
Direct configuration=    37
   0.49457353  0.54582732  0.68460434
   0.50461239  0.61620147  0.60309385
   0.69264304  0.60611704  0.48325030
   0.66889695  0.75305262  0.62662284
   0.53202410  0.51672079  0.58205385
   0.57416270  0.69565171  0.60363784
   0.59290162  0.60298284  0.54005617
   0.65530293  0.65308965  0.66378342
   0.54267410  0.64266559  0.70167770
   0.67468063  0.67948658  0.55386599
   0.68753672  0.57741692  0.59048608
   0.59860274  0.56482135  0.65194370
Direct configuration=    38
   0.49472508  0.54584801  0.68462207
   0.50437876  0.61632455  0.60311661
   0.69287284  0.60620540  0.48337426
   0.66860557  0.75309135  0.62648913
   0.53157529  0.51687290  0.58193280
   0.57408049  0.69567248  0.60378869
   0.59304785  0.60298096  0.54029591
   0.65525048  0.65299713  0.66376059
   0.54288292  0.64259130  0.70161711
   0.67468732  0.67942464  0.55367722
   0.68775063  0.57736652  0.59065966
   0.59875423  0.56465865  0.65174202
Direct configuration=    39
   0.49463109  0.54583518  0.68461107
   0.50452366  0.61624822  0.60310249
   0.69273032  0.60615060  0.48329738
   0.66878628  0.75306733  0.62657206
   0.53185365  0.51677856  0.58200788
   0.57413148  0.69565960  0.60369513
   0.59295716  0.60298213  0.54014722
   0.65528301  0.65305451  0.66377475
   0.54275340  0.64263738  0.70165469
   0.67468317  0.67946305  0.55379430
   0.68761796  0.57739778  0.59055200
   0.59866027  0.56475956  0.65186710
Direct configuration=    40
   0.49463873  0.54576443  0.68474924
   0.50458977  0.61634894  0.60310480
   0.69288095  0.60610932  0.48343007
   0.66861046  0.75305292  0.62648467
   0.53146502  0.51686037  0.58197347
   0.57414487  0.69568130  0.60370936
   0.59294434  0.60302441  0.54028324
   0.65523001  0.65301064  0.66369749
   0.54291812  0.64254344  0.70156130
   0.67466720  0.67952126  0.55385990
   0.68787949  0.57748435  0.59057069
   0.59864251  0.56463250  0.65165184
Direct configuration=    41
   0.49464795  0.54567918  0.68491574
   0.50466943  0.61647031  0.60310758
   0.69306246  0.60605958  0.48358997
   0.66839858  0.75303556  0.62637938
   0.53099672  0.51695896  0.58193201
   0.57416100  0.69570745  0.60372651
   0.59292890  0.60307537  0.54044714
   0.65516613  0.65295778  0.66360438
   0.54311660  0.64243025  0.70144875
   0.67464796  0.67959140  0.55393895
   0.68819463  0.57758867  0.59059322
   0.59862111  0.56447939  0.65139245
Direct configuration=    42
   0.49464021  0.54569240  0.68507817
   0.50467651  0.61645460  0.60321539
   0.69311746  0.60597941  0.48378407
   0.66828613  0.75318048  0.62646720
   0.53061440  0.51694161  0.58199228
   0.57415923  0.69587248  0.60358908
   0.59306661  0.60305131  0.54040745
   0.65511653  0.65286805  0.66355990
   0.54329741  0.64227748  0.70138252
   0.67466152  0.67957267  0.55394515
   0.68843783  0.57781811  0.59056397
   0.59853763  0.56432530  0.65109089
Direct configuration=    43
   0.49463838  0.54569552  0.68511649
   0.50467818  0.61645089  0.60324082
   0.69313043  0.60596050  0.48382987
   0.66825960  0.75321467  0.62648792
   0.53052420  0.51693752  0.58200649
   0.57415881  0.69591141  0.60355666
   0.59309909  0.60304563  0.54039809
   0.65510483  0.65284688  0.66354941
   0.54334007  0.64224144  0.70136689
   0.67466471  0.67956825  0.55394661
   0.68849520  0.57787223  0.59055707
   0.59851794  0.56428895  0.65101975
Direct configuration=    44
   0.49463931  0.54569394  0.68509714
   0.50467734  0.61645276  0.60322798
   0.69312388  0.60597005  0.48380674
   0.66827300  0.75319740  0.62647746
   0.53056974  0.51693958  0.58199931
   0.57415902  0.69589175  0.60357303
   0.59308269  0.60304850  0.54040282
   0.65511074  0.65285757  0.66355471
   0.54331853  0.64225964  0.70137478
   0.67466310  0.67957048  0.55394587
   0.68846623  0.57784490  0.59056055
   0.59852788  0.56430731  0.65105567
Direct configuration=    45
   0.49463884  0.54569473  0.68510682
   0.50467776  0.61645183  0.60323440
   0.69312716  0.60596527  0.48381830
   0.66826630  0.75320604  0.62648269
   0.53054697  0.51693855  0.58200290
   0.57415892  0.69590158  0.60356484
   0.59309089  0.60304707  0.54040045
   0.65510778  0.65285222  0.66355206
   0.54332930  0.64225054  0.70137084
   0.67466391  0.67956937  0.55394624
   0.68848072  0.57785857  0.59055881
   0.59852291  0.56429813  0.65103771
Direct configuration=    46
   0.49463910  0.54569429  0.68510136
   0.50467752  0.61645235  0.60323078
   0.69312531  0.60596797  0.48381178
   0.66827008  0.75320116  0.62647974
   0.53055982  0.51693913  0.58200088
   0.57415898  0.69589603  0.60356946
   0.59308626  0.60304787  0.54040179
   0.65510945  0.65285524  0.66355355
   0.54332322  0.64225568  0.70137306
   0.67466345  0.67957000  0.55394604
   0.68847254  0.57785086  0.59055980
   0.59852572  0.56430331  0.65104784
Direct configuration=    47
   0.49460562  0.54577742  0.68519447
   0.50471898  0.61639993  0.60326494
   0.69315023  0.60588543  0.48375549
   0.66831924  0.75322470  0.62655220
   0.53033577  0.51680679  0.58205910
   0.57412903  0.69603251  0.60339870
   0.59309443  0.60293964  0.54034305
   0.65503293  0.65282588  0.66353731
   0.54343078  0.64220377  0.70145759
   0.67468814  0.67971007  0.55403185
   0.68854462  0.57796465  0.59063781
   0.59856169  0.56426310  0.65084357
Direct configuration=    48
   0.49459569  0.54580205  0.68522206
   0.50473127  0.61638439  0.60327506
   0.69315762  0.60586098  0.48373881
   0.66833381  0.75323167  0.62657366
   0.53026938  0.51676757  0.58207635
   0.57412016  0.69607295  0.60334810
   0.59309685  0.60290758  0.54032564
   0.65501026  0.65281718  0.66353250
   0.54346265  0.64218839  0.70148263
   0.67469546  0.67975157  0.55405728
   0.68856597  0.57799836  0.59066092
   0.59857235  0.56425119  0.65078305
Direct configuration=    49
   0.49460173  0.54578706  0.68520526
   0.50472379  0.61639385  0.60326890
   0.69315312  0.60587587  0.48374896
   0.66832494  0.75322743  0.62656059
   0.53030980  0.51679145  0.58206585
   0.57412556  0.69604833  0.60337890
   0.59309537  0.60292710  0.54033624
   0.65502407  0.65282247  0.66353543
   0.54344325  0.64219776  0.70146739
   0.67469100  0.67972630  0.55404180
   0.68855297  0.57797784  0.59064685
   0.59856586  0.56425844  0.65081990
Direct configuration=    50
   0.49459245  0.54592214  0.68530382
   0.50483447  0.61638896  0.60328007
   0.69310402  0.60588805  0.48373938
   0.66845758  0.75324179  0.62669684
   0.53010379  0.51663234  0.58212591
   0.57404654  0.69608911  0.60324869
   0.59309282  0.60281008  0.54029635
   0.65491091  0.65288491  0.66355690
   0.54357355  0.64216551  0.70159702
   0.67471132  0.67968970  0.55395899
   0.68863499  0.57810378  0.59065436
   0.59854901  0.56421752  0.65061775
Direct configuration=    51
   0.49457860  0.54612348  0.68545073
   0.50499944  0.61638167  0.60329671
   0.69303083  0.60590621  0.48372509
   0.66865529  0.75326320  0.62689991
   0.52979674  0.51639519  0.58221543
   0.57392876  0.69614990  0.60305460
   0.59308901  0.60263567  0.54023690
   0.65474225  0.65297796  0.66358891
   0.54376778  0.64211744  0.70179024
   0.67474160  0.67963514  0.55383556
   0.68875725  0.57829150  0.59066556
   0.59852390  0.56415652  0.65031643
Direct configuration=    52
   0.49458654  0.54600808  0.68536653
   0.50490488  0.61638585  0.60328717
   0.69307278  0.60589580  0.48373328
   0.66854197  0.75325093  0.62678352
   0.52997273  0.51653112  0.58216412
   0.57399626  0.69611506  0.60316584
   0.59309119  0.60273563  0.54027098
   0.65483892  0.65292463  0.66357056
   0.54365646  0.64214499  0.70167949
   0.67472425  0.67966641  0.55390630
   0.68868718  0.57818391  0.59065914
   0.59853829  0.56419149  0.65048913
Direct configuration=    53
   0.49458857  0.54597845  0.68534492
   0.50488061  0.61638692  0.60328472
   0.69308355  0.60589313  0.48373538
   0.66851288  0.75324778  0.62675364
   0.53001791  0.51656601  0.58215095
   0.57401359  0.69610612  0.60319440
   0.59309175  0.60276130  0.54027972
   0.65486374  0.65291094  0.66356585
   0.54362788  0.64215206  0.70165106
   0.67471979  0.67967444  0.55392446
   0.68866919  0.57815629  0.59065749
   0.59854199  0.56420046  0.65053347
Direct configuration=    54
   0.49458773  0.54599077  0.68535390
   0.50489070  0.61638648  0.60328574
   0.69307907  0.60589424  0.48373451
   0.66852497  0.75324909  0.62676606
   0.52999913  0.51655151  0.58215642
   0.57400639  0.69610983  0.60318253
   0.59309152  0.60275063  0.54027609
   0.65485342  0.65291663  0.66356781
   0.54363976  0.64214912  0.70166288
   0.67472164  0.67967110  0.55391691
   0.68867666  0.57816777  0.59065818
   0.59854045  0.56419673  0.65051504
Direct configuration=    55
   0.49458819  0.54598397  0.68534894
   0.50488513  0.61638672  0.60328518
   0.69308154  0.60589363  0.48373499
   0.66851830  0.75324836  0.62675920
   0.53000950  0.51655952  0.58215340
   0.57401037  0.69610778  0.60318908
   0.59309165  0.60275652  0.54027810
   0.65485912  0.65291348  0.66356673
   0.54363320  0.64215075  0.70165636
   0.67472062  0.67967295  0.55392108
   0.68867254  0.57816143  0.59065780
   0.59854130  0.56419879  0.65052522
Direct configuration=    56
   0.49458796  0.54598737  0.68535142
   0.50488791  0.61638660  0.60328546
   0.69308031  0.60589393  0.48373475
   0.66852164  0.75324873  0.62676263
   0.53000432  0.51655551  0.58215491
   0.57400838  0.69610881  0.60318581
   0.59309159  0.60275358  0.54027709
   0.65485627  0.65291506  0.66356727
   0.54363648  0.64214993  0.70165962
   0.67472113  0.67967203  0.55391900
   0.68867460  0.57816460  0.59065799
   0.59854088  0.56419776  0.65052013
Direct configuration=    57
   0.49462233  0.54611869  0.68544246
   0.50500606  0.61637050  0.60334253
   0.69300527  0.60591931  0.48365450
   0.66869989  0.75313145  0.62682776
   0.52975634  0.51641727  0.58226114
   0.57405572  0.69610536  0.60311910
   0.59307704  0.60262596  0.54027526
   0.65473166  0.65301569  0.66356774
   0.54378012  0.64212102  0.70171579
   0.67465630  0.67973921  0.55389513
   0.68876471  0.57827179  0.59062659
   0.59845602  0.56419764  0.65034806
Direct configuration=    58
   0.49462758  0.54613872  0.68545635
   0.50502407  0.61636805  0.60335123
   0.69299383  0.60592318  0.48364227
   0.66872707  0.75311356  0.62683769
   0.52971853  0.51639619  0.58227734
   0.57406294  0.69610483  0.60310892
   0.59307482  0.60260650  0.54027498
   0.65471265  0.65303104  0.66356782
   0.54380202  0.64211661  0.70172436
   0.67464641  0.67974946  0.55389148
   0.68877845  0.57828813  0.59062181
   0.59844308  0.56419762  0.65032182
Direct configuration=    59
   0.49462329  0.54612234  0.68544499
   0.50500933  0.61637006  0.60334411
   0.69300319  0.60592001  0.48365228
   0.66870483  0.75312819  0.62682957
   0.52974946  0.51641343  0.58226408
   0.57405704  0.69610526  0.60311725
   0.59307664  0.60262242  0.54027521
   0.65472820  0.65301848  0.66356776
   0.54378410  0.64212022  0.70171735
   0.67465450  0.67974107  0.55389446
   0.68876721  0.57827476  0.59062572
   0.59845367  0.56419763  0.65034329
Direct configuration=    60
   0.49462283  0.54612060  0.68544379
   0.50500777  0.61637027  0.60334336
   0.69300418  0.60591968  0.48365334
   0.66870248  0.75312974  0.62682871
   0.52975274  0.51641526  0.58226268
   0.57405641  0.69610531  0.60311813
   0.59307683  0.60262411  0.54027524
   0.65472985  0.65301716  0.66356775
   0.54378221  0.64212060  0.70171661
   0.67465536  0.67974019  0.55389478
   0.68876602  0.57827335  0.59062614
   0.59845479  0.56419764  0.65034556
Direct configuration=    61
   0.49462256  0.54611954  0.68544305
   0.50500682  0.61637040  0.60334290
   0.69300479  0.60591947  0.48365398
   0.66870104  0.75313069  0.62682818
   0.52975474  0.51641637  0.58226183
   0.57405603  0.69610534  0.60311867
   0.59307695  0.60262514  0.54027525
   0.65473085  0.65301634  0.66356775
   0.54378105  0.64212083  0.70171616
   0.67465588  0.67973964  0.55389497
   0.68876529  0.57827248  0.59062639
   0.59845547  0.56419764  0.65034695
Direct configuration=    62
   0.49462243  0.54611907  0.68544272
   0.50500639  0.61637046  0.60334269
   0.69300506  0.60591938  0.48365427
   0.66870040  0.75313111  0.62682795
   0.52975563  0.51641687  0.58226144
   0.57405586  0.69610535  0.60311891
   0.59307700  0.60262560  0.54027526